132
energy: -196.937862509347 gnorm: 0.009370168158 xtb: 6.7.1 (edcfbbe)
C           -1.24466703038927        0.33929529607845        0.13910690742330
C           -1.17459511332122       -1.05628731188436       -0.07102554635954
C            0.05068764531666       -1.69777031878154       -0.21636063915413
C            1.23764648051217       -0.97013521175446       -0.22762595565356
C            1.22947276003917        0.44178704890161       -0.20963073662855
C           -0.02782071913566        1.03372856501455        0.01118494862474
N           -0.06707032529104        2.38623139890895        0.11934364701247
N           -2.37652223731953       -1.74230267948277       -0.07682344342483
N            2.47784161968060       -1.57709689490040       -0.28286436542211
C            1.01615801869346        3.21828457879771        0.05939774437582
C            0.59135908924521        4.55341808096682        0.22494556207763
C           -0.85448559823097        4.50038534340438        0.34868662372157
C           -1.19706671178648        3.13248972815661        0.30585238774862
C            2.33231933385057        2.81337593893484       -0.14383310244693
C            3.26759675025883        3.85468491209661       -0.03200714386039
C            2.90784524840756        5.18440263173344        0.16257534050209
C            1.55576759634816        5.53972236713769        0.25910248571189
C           -1.87608347079461        5.41925856402425        0.47328514677639
C           -3.20276182310655        4.97073676982587        0.52431968633369
C           -3.48004131275100        3.60769100849684        0.50876530321680
C           -2.48314538311748        2.62107800731116        0.45100146299473
C           -4.30804947893464        6.01539872136135        0.61893698310259
C           -4.23817653606249        6.93556888059555       -0.60807080657711
C           -5.70982669012858        5.40100350279949        0.67001653500877
C           -4.10519345434688        6.83775632015123        1.89982845047127
C            2.83094659072525       -2.91332812418010       -0.08615294188248
C            4.14233639640126       -3.09726174178058       -0.43641328570139
C            4.65483617481549       -1.82080130599010       -0.85426734071030
C            3.58523928353077       -0.89283861514160       -0.71972567508199
C           -3.49321829773123       -1.20516680520579        0.52187684446693
C           -4.48877115525599       -2.21834253900378        0.60211379836300
C           -3.93374491869625       -3.38013957125252       -0.02912515265561
C           -2.66694682691937       -3.05759057553813       -0.44077146878912
C            5.88047101749757       -1.38293762828852       -1.29049799804869
C            6.01846044787612       -0.03548743741778       -1.67903789916237
C            4.92312880088678        0.87527607888394       -1.56123024544634
C            3.69225180739361        0.46932427031911       -0.96152241869264
C            7.23809904701756        0.42897004856326       -2.21951817882648
C            7.36418305391424        1.70454414248352       -2.68968868274419
C            6.25944020080803        2.56852216718206       -2.66603385559665
C            5.07514008917369        2.16210284109033       -2.11566377756182
C           -3.67097349111042        0.10027752157006        0.95753303190631
C           -4.88872867689284        0.33943812747058        1.66382949587461
C           -5.91394587694598       -0.65470704204883        1.72003043474959
C           -5.70833848465047       -1.93112125415857        1.16268736102182
C           -5.10002077222899        1.53908486856538        2.37333680218419
C           -6.28600933841510        1.79883652967197        3.00377147161376
C           -7.32960992786294        0.86197240665879        2.96874778158946
C           -7.13550791277981       -0.34385032730664        2.35906985869056
C           -4.65754097450657       -4.63597355506680       -0.25976138583939
C           -1.82052012235643       -3.90821557183411       -1.26962778072063
C           -1.71506154568606       -5.26931081624328       -0.99214496589951
C           -0.98403609781696       -6.09694326411729       -1.82345362649692
C           -0.34126173551794       -5.57929161258410       -2.93469613780131
C           -0.44451022134908       -4.22733439349997       -3.22194951656564
C           -1.18562499759231       -3.39815650359878       -2.40335491573697
C           -4.89551657845014       -5.52100776467227        0.79411294103876
C           -5.58006069459273       -6.70197718404839        0.57262340532846
C           -6.05622331084291       -6.99923959025507       -0.69754816714204
C           -5.83425868178844       -6.11675112557662       -1.74739434638424
C           -5.13216183803338       -4.94438035155874       -1.53306713953242
C            4.96106525588049       -4.31022767371226       -0.31917910792261
C            4.84168587850791       -5.36234083135966       -1.22123232274252
C            5.63526286517988       -6.48854335744701       -1.09175746692526
C            6.56415029437076       -6.57283512202703       -0.06774142158519
C            6.70837846865383       -5.51698965065216        0.81901167447176
C            5.91520970205908       -4.39187565667639        0.69247032135065
C            1.96528659827252       -3.85924204820430        0.61591487002114
C            1.36174442087082       -3.47280379297775        1.81471143471211
C            0.56523212597222       -4.35734224444173        2.51359711545799
C            0.37362198049335       -5.64541700722928        2.04019807222014
C            0.98391467752490       -6.04301683152028        0.86226488537343
C            1.77133176894897       -5.15655148765140        0.15106227038447
B            2.48939209963857        1.29719591630638       -0.45438289228563
B           -2.54368429194797        1.06948384582082        0.53298568428011
C            3.94682647025570        6.29533488592820        0.25773324630706
C            5.38581235999289        5.77808993969823        0.17976005823126
C            3.73081936094580        7.27652847613262       -0.90349876094669
C            3.78109229621321        7.02907290390261        1.59634372024511
H            0.08244561441028       -2.76791988987768       -0.31320784714838
H            4.31044143124552        3.59167289745475       -0.08361205246330
H            1.26275698132548        6.57130636440685        0.38004839521765
H           -1.64720758418927        6.47324035401354        0.51177420575147
H           -4.50428583073552        3.27626357249395        0.52496882940753
H           -5.02873179642002        7.68183260051371       -0.56305029820126
H           -3.28507749629033        7.45446725679630       -0.66389677678394
H           -4.36309811529859        6.35472608810108       -1.51965473505853
H           -6.44976091189147        6.19633950473629        0.73857363408641
H           -5.82729034542820        4.75761636302596        1.53874823139439
H           -5.91997697993795        4.82534147755715       -0.22838615453347
H           -4.11433511831200        6.18481216831925        2.77032913138840
H           -3.15880525374773        7.37157673312998        1.88584769300238
H           -4.90428762425317        7.56850110251204        2.00803770550518
H            6.72289548423398       -2.05580072967234       -1.36662914236079
H            8.06975365983760       -0.26037945201367       -2.27331499016917
H            8.30071332261011        2.04480735267163       -3.10570061755408
H            6.34787399332204        3.55539250071759       -3.09765875850430
H            4.21591041764395        2.81355822297998       -2.13544987368716
H           -6.49567474370058       -2.67013045237587        1.20050119408133
H           -4.28582999389370        2.24289744624425        2.44103851277819
H           -6.42281612788415        2.72526892881936        3.54338025766880
H           -8.27060983521462        1.08961347658746        3.44870126165900
H           -7.91424375594469       -1.09419367163436        2.36681510483113
H           -2.20217421875827       -5.67290362805992       -0.11818049647480
H           -0.91964438710250       -7.15227351154257       -1.60724884192514
H            0.23005700643970       -6.22710901038567       -3.58162068248360
H            0.04863323092546       -3.81865167709519       -4.09175736860488
H           -1.27862328165849       -2.34785618445981       -2.63857894309291
H           -4.52717143025715       -5.28315233595906        1.78178796472007
H           -5.74499947305835       -7.39212988311421        1.39044827073336
H           -6.59919244439919       -7.91773337756563       -0.86869628644360
H           -6.21047815373324       -6.34256395198431       -2.73777811715473
H           -4.95215394860518       -4.25654431940403       -2.35237896423682
H            4.13698509900193       -5.29056352920960       -2.03892966595777
H            5.53069027937624       -7.30283788885809       -1.79552235517026
H            7.17971547504373       -7.45478528883687        0.03362963172428
H            7.44117411373732       -5.57054201393210        1.61250140996912
H            6.02646876605155       -3.56679258176375        1.38346176291464
H            1.51742557417021       -2.47261426958426        2.19173273024431
H            0.09384959635177       -4.04374499115429        3.43400005456041
H           -0.24966280256683       -6.33509896384010        2.59015384627736
H            0.84265017478808       -7.04729302121836        0.49090431971186
H            2.22483399229664       -5.46198479808246       -0.77832703879965
H            6.07540553571742        6.61817644559804        0.24815268960698
H            5.60320201214680        5.09853069415494        1.00073117359920
H            5.57325543136095        5.26802993189452       -0.76232633831971
H            4.47094422142448        8.07248021994575       -0.86558231503874
H            2.74385121145707        7.72920364936457       -0.86325890685705
H            3.82847222227189        6.75873409102102       -1.85516004661876
H            3.88807771133282        6.33011908460405        2.42321100870452
H            4.54093674733257        7.80145970552907        1.69730465551793
H            2.80654092597909        7.50251137452684        1.67536875796976
