132
energy: -196.943481403894 gnorm: 0.007500602309 xtb: 6.7.1 (edcfbbe)
C           -1.25397866368217        0.35661129653799        0.23791160813045
C           -1.18329936563763       -1.04183403634087        0.04444040335178
C            0.04336544846750       -1.68883051025387       -0.06933766167885
C            1.22999997496147       -0.96353344467999       -0.10184724659218
C            1.22159319033532        0.44853328043442       -0.10314498870869
C           -0.03338562519302        1.04555900525616        0.11676176102401
N           -0.06691978956457        2.39958235522877        0.21006078089400
N           -2.38665476267906       -1.72189879513018        0.00348421946786
N            2.46870672219256       -1.57222303351460       -0.18647867968590
C            1.01909567028040        3.22629170505175        0.14066836626052
C            0.60125464458844        4.56493955003921        0.29631826328357
C           -0.84450769879701        4.51945953749386        0.42231828334319
C           -1.19421774413915        3.15297312780976        0.38729987524004
C            2.33154668354211        2.81541998908437       -0.07389095268438
C            3.27270650796507        3.85264138558328        0.01402687166297
C            2.92036518457510        5.18624295328492        0.19597475488875
C            1.57078989374064        5.54707722641398        0.30800314146290
C           -1.86284223013317        5.44439846441989        0.53508141189209
C           -3.19176116844976        5.00194369982145        0.57710190311526
C           -3.47576635052379        3.64006462244322        0.56418452157073
C           -2.48394773908464        2.64746214041414        0.52052976344868
C           -4.29550294649543        6.05058892309616        0.65307544319979
C           -4.20212873084032        6.96921829684745       -0.57340114155232
C           -5.69980597031430        5.44016496005984        0.67997980810952
C           -4.11369746201398        6.87291119522405        1.93705662865195
C            2.83341200949856       -2.90572643630163       -0.00187200546207
C            4.11326499196581       -3.09956803092996       -0.45505774340495
C            4.59525639456768       -1.83136792212837       -0.92706504004920
C            3.54826682910736       -0.89540719858113       -0.70114290840101
C           -3.53005796630633       -1.16945345351521        0.53337827549638
C           -4.54850622412407       -2.16284262189414        0.53509106505526
C           -3.97388758354528       -3.33313257134665       -0.07290608062781
C           -2.67231173195527       -3.02815202288704       -0.38639575040331
C            5.78477138662692       -1.40468337011506       -1.46140115231055
C            5.90703687825085       -0.05511416477716       -1.84858994481542
C            4.83728124695883        0.86662497772797       -1.63108054368686
C            3.64952460399236        0.46612107545625       -0.94866850096465
C            7.08407293617279        0.39780313661714       -2.48334543612440
C            7.19521288947245        1.68124558097297       -2.93711522312340
C            6.11316026645440        2.56290051731233       -2.80117077293155
C            4.96832969749365        2.16303236758474       -2.16872156513314
C           -3.71266507147295        0.13645132419511        0.96703029276245
C           -4.96212432044754        0.38751800743652        1.61101172008491
C           -6.00995519312754       -0.58199859239851        1.58201570077979
C           -5.79992793899650       -1.84880309644635        1.00240531870208
C           -5.18529945857766        1.57065254058700        2.34437215227011
C           -6.39401060358191        1.83504737195029        2.92676117978905
C           -7.45354639600230        0.92322094651910        2.81086197007445
C           -7.25587527033364       -0.26405165835090        2.16656347799563
C           -4.67967763134269       -4.57957628362770       -0.34052231706992
C           -1.74897947970948       -3.90199264057211       -1.10583093625911
C           -1.58006880701883       -5.22485023993499       -0.70325393940117
C           -0.76368322890153       -6.07368824907409       -1.42454505791652
C           -0.09508567188664       -5.61326074257183       -2.54677882970720
C           -0.25640104871143       -4.29918898237458       -2.95509172339540
C           -1.08618295476812       -3.45082784822916       -2.24777649037744
C           -5.46746001412390       -5.16246496793922        0.65137786118464
C           -6.15121269582401       -6.33704014731170        0.40672249031022
C           -6.06488225750249       -6.94970935387181       -0.83259779383714
C           -5.28842821372015       -6.37643286903418       -1.82638208411345
C           -4.60363182743790       -5.20201531981008       -1.58589002439621
C            4.90467340523387       -4.33092265403844       -0.41094719741803
C            5.34581773211093       -4.92392302357142       -1.59190026400054
C            6.10046808870532       -6.08204053307487       -1.55361558343251
C            6.43768395820502       -6.65276828348800       -0.33732915568469
C            6.01020703687153       -6.06320670953492        0.84192540276960
C            5.24513378665736       -4.91269912389367        0.80713560770182
C            2.03581333983325       -3.89005093141003        0.71970897334234
C            1.36608238748338       -3.54603432941404        1.89494392582932
C            0.67490784729297       -4.50203927103203        2.61147253226112
C            0.65794778264540       -5.81928882923329        2.18159748971811
C            1.33792037722313       -6.17140795681876        1.02817505070277
C            2.01614048873571       -5.21704030749173        0.29526820786212
B            2.47660168322919        1.29852904538271       -0.38210604299433
B           -2.55844095157560        1.09585860747558        0.59699220693717
C            3.96497956442179        6.29383202784296        0.25415111714172
C            5.39990327711717        5.77125191162556        0.13758506885893
C            3.72100645704771        7.26634465907753       -0.90938081845995
C            3.83910261981799        7.03888556752572        1.59001965101438
H            0.07816137600936       -2.76088384577618       -0.13833897208543
H            4.31346422434958        3.58335584502567       -0.04916222538496
H            1.28433400586266        6.58157708729826        0.42028136452204
H           -1.63030869875419        6.49793971940707        0.56924035672431
H           -4.50168273980631        3.31425547481059        0.56978200279920
H           -4.99365388572618        7.71543537433833       -0.54541049036926
H           -3.24847122294621        7.48855458500291       -0.61247070075096
H           -4.30955025059482        6.38649139113632       -1.48617560118799
H           -6.43843841609305        6.23747686072319        0.73692505094710
H           -5.83356368224755        4.79646143281255        1.54613321364372
H           -5.89593695136493        4.86574105240898       -0.22237250877545
H           -4.16633713206023        6.22286564236327        2.80838920329885
H           -3.15464975585282        7.38374637850285        1.95226056734745
H           -4.89854041197274        7.62224791312696        2.01750471547846
H            6.60898214919860       -2.08726367130004       -1.60886994032996
H            7.89410928759585       -0.30512154882989       -2.62013142703341
H            8.09944645554863        2.01514298634766       -3.42429050949600
H            6.18788015382097        3.55970482482984       -3.21268250155988
H            4.12368797559547        2.82979105693139       -2.10516398674464
H           -6.61137527898195       -2.56023999979166        0.95576723163392
H           -4.36220054756864        2.25468834252467        2.47431179839305
H           -6.53901800356820        2.74464116039837        3.49241884114095
H           -8.40936031831831        1.15466995025742        3.25710873067693
H           -8.04806855028871       -0.99752052712413        2.11011568427685
H           -2.08779324551653       -5.58169048703350        0.18045046173043
H           -0.64649226260024       -7.09986932259865       -1.11158515797779
H            0.54950961964553       -6.27302746084443       -3.10832750035103
H            0.25949375138072       -3.93433665067188       -3.83125573356313
H           -1.22601584611329       -2.42980385063111       -2.57437809040681
H           -5.51543383298331       -4.69024764468020        1.62168931905531
H           -6.75562708165718       -6.78031468679984        1.18695650355179
H           -6.60168785157631       -7.86729080041101       -1.02085754155590
H           -5.22395801593231       -6.84712697674058       -2.79628667416403
H           -4.00899477798763       -4.75244977418253       -2.37061783580299
H            5.07959677061372       -4.47928887403231       -2.54068958372195
H            6.42665318481601       -6.54353426532995       -2.47523197053963
H            7.03262386589071       -7.55380249086931       -0.30743888325101
H            6.27770920790651       -6.50143366811047        1.79252734195764
H            4.91113892480627       -4.45020670435911        1.72595622205565
H            1.39585538012633       -2.52415383937288        2.24607599073792
H            0.15519511533015       -4.21879800113549        3.51522695231738
H            0.12292531620030       -6.56872115035057        2.74482056852503
H            1.34113570533960       -7.19890016628144        0.69706555115047
H            2.52989222572318       -5.49047597116603       -0.61316745752937
H            6.09319721693099        6.60917475683680        0.18376202259940
H            5.63947956735507        5.09315700626720        0.95354864083953
H            5.55752074361841        5.25766753684307       -0.80799403904824
H            4.46662892837794        8.06006430064368       -0.89855851781039
H            2.73682995452852        7.72459407748299       -0.84681700077169
H            3.79133763645532        6.73900650808911       -1.85988679220901
H            3.99200298302789        6.35121023828864        2.41949687136440
H            4.58705723353285        7.82677387639379        1.65281450820474
H            2.85872470566334        7.49405417642501        1.70296897599274
