132
energy: -196.944651675083 gnorm: 0.002967815909 xtb: 6.7.1 (edcfbbe)
C           -1.24695793997593        0.34980902987584        0.24948505695083
C           -1.17388368732958       -1.04952831355681        0.06787553100055
C            0.05372429406853       -1.69618398619135       -0.04595448864666
C            1.23822911775012       -0.96781465327016       -0.09840992049474
C            1.22464677132662        0.44433092885320       -0.11182875050190
C           -0.02921775257481        1.04113628706156        0.11330631097840
N           -0.06775889668011        2.39556396782496        0.19698220458846
N           -2.37735820437605       -1.73074622514451        0.03675630414195
N            2.47991096521798       -1.57285947418537       -0.18694740615939
C            1.01567683029692        3.22539008344833        0.11551928280292
C            0.59564611866774        4.56370827669376        0.26632502828202
C           -0.84986939837780        4.51487897537948        0.39900758749305
C           -1.19583843292227        3.14706909306568        0.37463797002041
C            2.32690892512315        2.81533273007758       -0.10536955569602
C            3.26683941154898        3.85450964301253       -0.02443770449238
C            2.91368600787439        5.18719618977497        0.16065842670860
C            1.56373309986554        5.54744586397535        0.27320565039454
C           -1.86986956693020        5.43734637645873        0.51302134712499
C           -3.19793287486288        4.99260171697656        0.56455528250289
C           -3.47831580643118        3.63010120882309        0.56284119885981
C           -2.48363568827253        2.64008727558947        0.52033707449896
C           -4.30196940359345        6.04040173003757        0.64390762621200
C           -4.20824293602382        6.96782644732904       -0.57612557035594
C           -5.70660779332429        5.43045609710966        0.66488612092689
C           -4.12007510147512        6.85471756313063        1.93313950443266
C            2.85228031775615       -2.89959581353923        0.01107607756843
C            4.13973631997447       -3.09100779052247       -0.42765796546265
C            4.61468043293385       -1.82354918923676       -0.91161461293431
C            3.55799444229671       -0.89370791714066       -0.70653834632657
C           -3.52010363996162       -1.17696646096042        0.56671648424041
C           -4.53920852580615       -2.16998268938515        0.56902275187859
C           -3.96721665802440       -3.33850925653469       -0.04267137498599
C           -2.66502323400662       -3.03498302438626       -0.35631816263384
C            5.80897430246345       -1.38467517472148       -1.42686087503893
C            5.91920015865510       -0.04139948854605       -1.83651178735653
C            4.83694724364915        0.87101615670400       -1.64631860688656
C            3.65009371270061        0.46640850052097       -0.96447396581686
C            7.09716224150869        0.41502535651101       -2.46837774680069
C            7.19451735257175        1.68874690358214       -2.94997568672081
C            6.10030099934701        2.55949405909687       -2.84084221317419
C            4.95671415979067        2.15884994208268       -2.20656223984855
C           -3.70024086759023        0.13038265638882        0.99647578489014
C           -4.94766121651149        0.38438301048517        1.64293608197707
C           -5.99515329489126       -0.58591506297723        1.61964359976454
C           -5.78841141407830       -1.85363529483775        1.04145900182338
C           -5.16821664791957        1.57090793747848        2.37143927467226
C           -6.37543396046922        1.83762144422286        2.95646414169670
C           -7.43453113365393        0.92449161832694        2.84744922750464
C           -7.23915205619490       -0.26550671412621        2.20736230272554
C           -4.68439617660077       -4.57739269182586       -0.32398136434544
C           -1.75239920340976       -3.90584246547731       -1.09290244288476
C           -1.60800614588272       -5.23987294595319       -0.71887724851456
C           -0.82016531433056       -6.09253444938213       -1.46770057686892
C           -0.15312502999393       -5.62400718142360       -2.58708860731354
C           -0.28649309789640       -4.29746249814276       -2.96335440098277
C           -1.08896662180879       -3.44479462069109       -2.23037847762319
C           -5.47221104743707       -5.16930568411421        0.66063036970274
C           -6.16522033243351       -6.33648132274657        0.39812209350986
C           -6.08495973631072       -6.92963628916257       -0.85013661029586
C           -5.30834035544618       -6.34509060849009       -1.83790800936408
C           -4.61626330906859       -5.17834345274004       -1.58039758437303
C            4.93186794603009       -4.31614145177220       -0.37469804372840
C            5.63507869474260       -4.73801930955247       -1.50183747325808
C            6.39541103164198       -5.89189879601345       -1.46362600763502
C            6.46784433333036       -6.63908184410106       -0.29928917109567
C            5.77785287278573       -6.22355805216564        0.82742743516443
C            5.01711135421869       -5.07082805247906        0.79393838095577
C            2.04105705474363       -3.88812469405632        0.71525774654553
C            1.42538077238383       -3.56496812041798        1.92564083888484
C            0.73096643147272       -4.52530387023302        2.63343227586377
C            0.65689754858019       -5.82507690240064        2.15750939975129
C            1.27481299241268       -6.15518864724145        0.96375644591499
C            1.95585128115323       -5.19435656780340        0.24041552782354
B            2.47442102406883        1.29749487866120       -0.40441736662647
B           -2.55098591649709        1.08884244432196        0.61158459934321
C            3.95975161842732        6.29303395725783        0.23241539632300
C            5.39409557602890        5.76833284438035        0.11873492370820
C            3.72461629630654        7.28026795558601       -0.91988554711159
C            3.82799730593158        7.02141985613745        1.57755874294015
H            0.08745497494477       -2.76920810745789       -0.10130119366917
H            4.30749356099546        3.58690576290695       -0.09444378056128
H            1.27664726233666        6.58190759109053        0.38392057039431
H           -1.63938154312299        6.49135086367379        0.54143588008956
H           -4.50353330809617        3.30201404815575        0.57790604074441
H           -5.00488463174574        7.70843764070716       -0.54668884412059
H           -3.25839897568602        7.49443704630335       -0.60653495417987
H           -4.30716097296717        6.39109990493700       -1.49355853292495
H           -6.44487122981351        6.22870410810174        0.71475192134104
H           -5.84653809437900        4.78987023180253        1.53232621633042
H           -5.89789481703919        4.85323610038076       -0.23674429902085
H           -4.16533132548986        6.19868460901459        2.80026577049548
H           -3.16366199963615        7.37039237120982        1.94721095066697
H           -4.90862618993170        7.59919178862975        2.02199870422378
H            6.64999655511712       -2.05220591828594       -1.54360388272837
H            7.91820546477247       -0.27917765466166       -2.58259657709094
H            8.09812211439027        2.02320455694634       -3.43812589103305
H            6.16467958021414        3.54772090838176       -3.27352281857642
H            4.10386011716913        2.81697601835873       -2.15988773063712
H           -6.60295201022348       -2.56184794609961        0.99883591888291
H           -4.34324012387253        2.25429845050292        2.49392995825378
H           -6.51861065209958        2.75003749634917        3.51785415588582
H           -8.38978368905393        1.15618463561468        3.29535265869905
H           -8.03262420041756       -0.99817721025499        2.15672506216531
H           -2.11628192106834       -5.60115656875876        0.16251427086453
H           -0.72837369414312       -7.12800776474928       -1.17709142113644
H            0.46710995427802       -6.29043273060153       -3.16819889413008
H            0.22872327292976       -3.92805574963180       -3.83802914417639
H           -1.20859148457874       -2.41529261484155       -2.53720468658613
H           -5.52169528391493       -4.71895108283823        1.64144362218410
H           -6.77014528658016       -6.78689865680738        1.17252967909599
H           -6.62614875628038       -7.84173723532291       -1.05358498971321
H           -5.24676661726590       -6.79954497929988       -2.81610781619453
H           -4.02315289227731       -4.71799924491336       -2.35777046850558
H            5.56178441685844       -4.16587150436563       -2.41447462093162
H            6.93254851345815       -6.21117206338783       -2.34584590759030
H            7.06255434806133       -7.54031688045484       -0.26955451514693
H            5.83786230225281       -6.79955299104759        1.73918658170196
H            4.49200329557277       -4.74177297861363        1.67730474362400
H            1.50173192608240       -2.55749931581157        2.30975004661977
H            0.25524229717068       -4.26240798214873        3.56699795084117
H            0.12242058976613       -6.57695028800270        2.71866761757396
H            1.23028821594907       -7.16882273437212        0.59487281107873
H            2.42508539557148       -5.45063385093136       -0.69720434382422
H            6.08916141027559        6.60388672246407        0.17983780674655
H            5.62615425014889        5.08021175089036        0.92850117235599
H            5.55720585024835        5.26556443335422       -0.83173247562224
H            4.47392234250689        8.06902495819274       -0.89690755469632
H            2.74365208229559        7.74322932316924       -0.85505303967410
H            3.79521941020958        6.76482883574175       -1.87567393384777
H            3.96110052296441        6.31973293073251        2.39872686126134
H            4.58642569326690        7.79736008461068        1.66067576405357
H            2.85289503964356        7.48874892282425        1.68497907880052
