132
energy: -196.940217527450 gnorm: 0.005810844547 xtb: 6.7.1 (edcfbbe)
C           -1.25048757435383        0.35133058007213        0.14357266719739
C           -1.18076184327410       -1.04395965843367       -0.06866744886126
C            0.04550839817369       -1.68548456663343       -0.20488718698343
C            1.23177529150111       -0.95783083335690       -0.20447193556241
C            1.22623219875565        0.45370167164650       -0.18614798850051
C           -0.03189778740829        1.04568571942285        0.02614818947303
N           -0.07008324022593        2.39786242608461        0.13585725521739
N           -2.38336658646219       -1.72956530189557       -0.08525652022918
N            2.47110744771280       -1.56558811140501       -0.25286451790129
C            1.01480287946906        3.22872058754740        0.08066401934825
C            0.59016826853011        4.56500308826326        0.23814063649060
C           -0.85713754706636        4.51343395411514        0.34987756389011
C           -1.20058679106319        3.14552200953612        0.31080180974647
C            2.33192202423784        2.82216393817269       -0.11280871686442
C            3.26758579445313        3.86282197203821        0.00296251132420
C            2.90815655409591        5.19360619403955        0.19058210720917
C            1.55550291211051        5.55040272410423        0.27662960297031
C           -1.88024968109578        5.43296746957702        0.45593659247008
C           -3.20751775768148        4.98464122249947        0.49902172479447
C           -3.48512814786400        3.62154352807328        0.49430759076745
C           -2.48791553542210        2.63449537107618        0.44837343989784
C           -4.31284642240059        6.03075197652335        0.57560444326481
C           -4.22001881039594        6.95546797465233       -0.64668076587927
C           -5.71655010391074        5.41885426585650        0.59796623016476
C           -4.13050158808030        6.84756577047599        1.86329218523294
C            2.81815466322748       -2.90411908375485       -0.06500760251711
C            4.12120566211845       -3.09493807474579       -0.43890348078987
C            4.63704308575042       -1.82166952949080       -0.85735079262925
C            3.57758910051643       -0.88593427796326       -0.70049944075211
C           -3.50207427267066       -1.19276553130057        0.51110202124631
C           -4.49512669713505       -2.20753989619568        0.59158906643753
C           -3.94117144023738       -3.36897859575090       -0.04431022500955
C           -2.67062172104224       -3.04448434026086       -0.44913395812536
C            5.86000471638022       -1.39032283559431       -1.30672307068176
C            6.00355776587683       -0.04100151399648       -1.68470353953320
C            4.91754578613097        0.87811561995309       -1.54677884126980
C            3.68982307141914        0.47685067209553       -0.93696284265180
C            7.22103338338588        0.41697053015655       -2.23667090760258
C            7.35293570003078        1.69374510217579       -2.70184475877028
C            6.25629231665129        2.56709656054414       -2.65778020211219
C            5.07605312460287        2.16787597196180       -2.09291539134945
C           -3.68032182389757        0.11212074414127        0.94920775080780
C           -4.89322008289254        0.34574315821740        1.66488889769910
C           -5.91280118505536       -0.65339955078428        1.73036212139882
C           -5.71214524163018       -1.92440657168370        1.15965363949219
C           -5.10277625605578        1.54321533368430        2.37921270100478
C           -6.27723294667839        1.79016279133172        3.03497156495097
C           -7.31132199171479        0.84250739481015        3.02194340707003
C           -7.12210325054232       -0.35680301281095        2.39826681714329
C           -4.65798178351794       -4.62392285084586       -0.26884820174249
C           -1.79995873040177       -3.90259829004905       -1.24683337505403
C           -1.67158214352483       -5.25275577211490       -0.92837123744139
C           -0.91162521538738       -6.08830810148859       -1.72472017919335
C           -0.25869832218048       -5.58890463183977       -2.83858603810458
C           -0.38503689043268       -4.24838517112934       -3.16596091353355
C           -1.15838856421108       -3.41198890504224       -2.38544637543960
C           -5.22937316355083       -5.30351977946629        0.80780007343392
C           -5.91145960509537       -6.48830356140405        0.60082981800465
C           -6.04510445677758       -7.00111674338693       -0.68198994477463
C           -5.49095634415390       -6.32427256565708       -1.75848962029311
C           -4.79738318125305       -5.14582439049877       -1.55382430614138
C            4.92120089389643       -4.32512048246872       -0.37272081436979
C            4.85761315248774       -5.27308654375452       -1.38710097081920
C            5.63287693277092       -6.41720357702512       -1.32373831665610
C            6.48443287156611       -6.62188851375928       -0.25205369549030
C            6.56727035923163       -5.67183815161117        0.75230610867003
C            5.79291822802068       -4.52798942296784        0.69126967023395
C            1.96454916798578       -3.85716601721423        0.64046967976109
C            1.33128933767943       -3.47447097869599        1.82442774096638
C            0.56044547051665       -4.37907773311039        2.52920068242482
C            0.42571643119474       -5.68086318106052        2.07732161937159
C            1.06300092493744       -6.07249806783898        0.91137941216587
C            1.82280149487291       -5.16815561506094        0.19388775098704
B            2.48969132629494        1.30647396366060       -0.42410663244382
B           -2.55144663947380        1.08252273623548        0.52982991187366
C            3.94876013541049        6.30341458053693        0.28764950583356
C            5.38759640506182        5.78550150911847        0.20534244247715
C            3.73220179352643        7.28874451677517       -0.87034623075196
C            3.78680423815053        7.03327088867690        1.62910743653732
H            0.08012031902032       -2.75554623800212       -0.30208566740977
H            4.31041666956490        3.59799561696354       -0.03976410463928
H            1.26322941881403        6.58288685470387        0.39227310467207
H           -1.65239726131835        6.48750000843301        0.48590312579183
H           -4.50974116759445        3.29066338638760        0.50839080859600
H           -5.01918456418725        7.69342909923765       -0.62029212446751
H           -3.27178911406929        7.48496478739981       -0.67663442993608
H           -4.31536615446282        6.37618015813715       -1.56286901428815
H           -6.45568073659678        6.21587119278397        0.65207048219338
H           -5.85356125825317        4.77531339435396        1.46371527299652
H           -5.90859501310593        4.84424499603390       -0.30514624734571
H           -4.17012300150704        6.19213366786099        2.73125668609136
H           -3.17591392770911        7.36649546584944        1.87328551532989
H           -4.92140307794456        7.58937183702205        1.95403603704536
H            6.69521024833042       -2.06934147761410       -1.40155967220289
H            8.04612304889613       -0.27877361644906       -2.30331992009403
H            8.28759794057941        2.02789011904596       -3.12854155966941
H            6.34807800399157        3.55585882269568       -3.08459089282199
H            4.22373576026480        2.82850207025819       -2.09446419599810
H           -6.50004029046069       -2.66284503976773        1.19530353166656
H           -4.29408597682951        2.25416484673163        2.43001149839843
H           -6.41176628927821        2.71429610252485        3.57900261300640
H           -8.24089043821042        1.05643636944402        3.52887014039786
H           -7.89305666571066       -1.11458428070150        2.41929949544327
H           -2.16522622730918       -5.64013179225161       -0.05024971514566
H           -0.82929594873811       -7.13539631370899       -1.47384220777771
H            0.34229192474520       -6.24402109406674       -3.45195517716177
H            0.11473858273827       -3.85473114634207       -4.03922954570989
H           -1.27146469627511       -2.37138316786518       -2.65471839918736
H           -5.12092605751663       -4.90629042735176        1.80844690959993
H           -6.34124059763408       -7.01537026346818        1.44236721613562
H           -6.58220482397572       -7.92440138733260       -0.84307075044283
H           -5.60085260959473       -6.71407643039842       -2.76192756033259
H           -4.36885814424584       -4.61529716431432       -2.39412862652972
H            4.20482245156127       -5.10540425473849       -2.23265275770605
H            5.57418006845722       -7.14939019233180       -2.11596564357005
H            7.08653477875322       -7.51709658906978       -0.20112518172728
H            7.23911626126950       -5.82236200909643        1.58471500437316
H            5.85634579820415       -3.78371892016428        1.47201267588922
H            1.44272611402052       -2.46429141900302        2.19101949157632
H            0.06726204549078       -4.06769200522500        3.43910342677393
H           -0.17118748707775       -6.38835287283311        2.63459263962538
H            0.96398308136241       -7.08713173598220        0.55673781473691
H            2.30034801503424       -5.46954089077161       -0.72528411800624
H            6.07659431074238        6.62627837153581        0.26430110771323
H            5.60933375603405        5.11217059758499        1.03029553366177
H            5.57034931028735        5.26858014912889       -0.73355926222669
H            4.48334005360473        8.07568218479646       -0.84016683617941
H            2.75150353225917        7.75462130287487       -0.81903928681694
H            3.81310909818396        6.77031304328252       -1.82398039679577
H            3.90844606350678        6.33370703747362        2.45372920973755
H            4.53957870152436        7.81333492844529        1.72461485514086
H            2.80762822989427        7.49576013352536        1.71725767439011
