132
energy: -196.942519877232 gnorm: 0.009364014223 xtb: 6.7.1 (edcfbbe)
C           -1.25518835351876        0.35875922722482        0.22914396273056
C           -1.18170802712393       -1.03949051033994        0.03519600040672
C            0.04536148099034       -1.68596810404333       -0.07118903609135
C            1.23129424356031       -0.95903860267682       -0.09734985225152
C            1.22195426748706        0.45252305433365       -0.10360814147889
C           -0.03430951919604        1.04849824482718        0.11315918436295
N           -0.06778831154158        2.40177241039852        0.21285640206026
N           -2.38311065773150       -1.72388582136894       -0.00933097446549
N            2.47110324234262       -1.56681721465423       -0.17011450993114
C            1.01907931508194        3.22873661223870        0.14760450678350
C            0.60156613796021        4.56604150805607        0.31405075256246
C           -0.84339495582889        4.51913056039507        0.44425914875465
C           -1.19503048431257        3.15356980533216        0.39626430499938
C            2.33084616482364        2.82029260291982       -0.07614022780534
C            3.27026927816912        3.86022780370188        0.00848004194987
C            2.91724979552519        5.19273520436432        0.19760375734059
C            1.56817730493729        5.55077340055253        0.32070284673267
C           -1.85805965204532        5.44541000607283        0.56835414851158
C           -3.18829328904289        5.00638420028029        0.59824542321636
C           -3.47588305801323        3.64537771955443        0.57125948427695
C           -2.48650369050951        2.64945356712749        0.52294410973719
C           -4.28512385834674        6.06279235239652        0.66136185605718
C           -4.17072218635252        6.96811606452708       -0.57394701729053
C           -5.69389881379731        5.46299730232199        0.68076628096493
C           -4.10852088136649        6.89798768936597        1.93792713241759
C            2.83703196796107       -2.89962469219107        0.02086695210965
C            4.11056342557753       -3.09524444422864       -0.44764359250698
C            4.58938660248704       -1.83230633722018       -0.93213740617583
C            3.54664605363920       -0.89377770602947       -0.70074963371311
C           -3.53007745905395       -1.17422027060583        0.51587627118270
C           -4.54221539337847       -2.17435724737231        0.51959399551501
C           -3.95955404796131       -3.34481567847302       -0.07915260628818
C           -2.65991403700265       -3.03344602895327       -0.39276483782193
C            5.77783287815193       -1.41098892425990       -1.47392969185551
C            5.90550022228431       -0.06159186913823       -1.85559701514206
C            4.83893627603652        0.86415992942110       -1.63503772301843
C            3.64955896538928        0.46748671592956       -0.95150415800536
C            7.08985760372212        0.39116062795883       -2.47981700565220
C            7.21225070923469        1.67807251248700       -2.91803009049680
C            6.13237462801879        2.56357086779267       -2.78323703149663
C            4.97987700083058        2.16327470577506       -2.16474138324136
C           -3.71607065284950        0.13158728833905        0.94891507695833
C           -4.96692195121148        0.37521080091609        1.59425872031655
C           -6.00947635796910       -0.60097528676912        1.56657889292813
C           -5.79505487244662       -1.86620855978092        0.98683110505126
C           -5.19384629325424        1.55489274650166        2.33154853963536
C           -6.40027585262666        1.80733336495689        2.92528347459906
C           -7.45394515008667        0.88786947839474        2.81418790099188
C           -7.25399968700986       -0.29368479877428        2.16060566414055
C           -4.67034336513259       -4.59279827785308       -0.33876484162201
C           -1.73470487695928       -3.90524764639097       -1.11445393387409
C           -1.55495939389525       -5.22356840822367       -0.70414980550529
C           -0.73950943426253       -6.07333949633289       -1.42769328359285
C           -0.08759833780321       -5.61902221549154       -2.56123813404636
C           -0.26463779683631       -4.30954963195791       -2.97911706889727
C           -1.08843769362775       -3.45885541835819       -2.26820299138635
C           -5.45256505311985       -5.16609865727939        0.66234401315724
C           -6.15514084160357       -6.33236184967073        0.42597541025654
C           -6.09265250976639       -6.94132809422993       -0.81787644480510
C           -5.31560561596425       -6.38080552594720       -1.81737291878877
C           -4.61155915868898       -5.21462968385126       -1.58568230050347
C            4.90326837570287       -4.32743192675533       -0.40709038419523
C            5.23614848007764       -4.98313175347647       -1.59204499254065
C            5.98337913040772       -6.14604478188655       -1.55680546306154
C            6.42669529298495       -6.65136206562862       -0.34236812725916
C            6.11745352489912       -5.99046979930283        0.83973497069530
C            5.35340149920015       -4.83907478224693        0.80982373066049
C            2.04184146480199       -3.88926335697359        0.73843565708595
C            1.33978040483633       -3.54677754485647        1.89582724877519
C            0.62874539758360       -4.50541836752883        2.59048774705822
C            0.62602126650762       -5.82267206684806        2.16022461521988
C            1.34622202211142       -6.17606911234320        1.03188301521333
C            2.04343757347179       -5.21836301689569        0.32042861075930
B            2.47746435572646        1.30319083757302       -0.38503696886865
B           -2.56232494780304        1.09594107653020        0.58668872639205
C            3.96003858571482        6.30304319969521        0.25153022035275
C            5.39530080159995        5.78193614630141        0.13790763882029
C            3.71292714316709        7.27147880633290       -0.91508747941020
C            3.83205147985263        7.05235608961702        1.58576725139941
H            0.08011495988224       -2.75828884914654       -0.13758988368202
H            4.31116798777327        3.59449013260778       -0.06457154298836
H            1.28008735886617        6.58437304418212        0.43623415665438
H           -1.62125544604022        6.49710668517325        0.61853885267553
H           -4.50347054016172        3.32386960727193        0.56862758776987
H           -4.96811917007861        7.70827366659981       -0.57455990793794
H           -3.22019683200935        7.49433934335767       -0.59510109992204
H           -4.25007413590188        6.37353826557448       -1.48180405916962
H           -6.42692581028886        6.26644472848183        0.72026720357186
H           -5.84078897545972        4.83056393756413        1.55308642807055
H           -5.88494299268741        4.87956336896092       -0.21672301104297
H           -4.14114752453266        6.25506253899032        2.81534626862830
H           -3.16057214413321        7.42873991680430        1.94058669142198
H           -4.90736935215786        7.63241885196764        2.01883597591303
H            6.59635429576284       -2.09876666774060       -1.62973977248961
H            7.89667215810796       -0.31584561601474       -2.61644527853633
H            8.12370615005217        2.01319194621314       -3.39191602137343
H            6.21546577986138        3.56416412125784       -3.18382645327181
H            4.13727835220887        2.83321258908848       -2.10394629292281
H           -6.60369789768608       -2.58109561404171        0.94164972829909
H           -4.37458396154344        2.24442367089890        2.45718969113667
H           -6.54671434953213        2.71322879618961        3.49609619116905
H           -8.40725015101608        1.10910272463034        3.27175675921082
H           -8.04236091572853       -1.03168646979516        2.10615661693504
H           -2.05347898133053       -5.57589421460642        0.18660379454439
H           -0.61292915509276       -7.09607194093219       -1.10632680997606
H            0.55483038324520       -6.28195211427176       -3.12184809849991
H            0.23432977683346       -3.95112967805549       -3.86795242131182
H           -1.23816072494471       -2.44165003455041       -2.60240992251848
H           -5.48313645341520       -4.69979655659747        1.63857138309470
H           -6.75136990970697       -6.76865662536545        1.21626387158968
H           -6.64396562808878       -7.85135208438148       -1.00339004006712
H           -5.26514914231584       -6.85366966327220       -2.78991144661894
H           -4.01820910822615       -4.77418114550376       -2.37370460194171
H            4.88832898706533       -4.58463897779185       -2.53673799478840
H            6.21881283137572       -6.66231955834692       -2.47832289527522
H            7.01314591717236       -7.55782286871975       -0.31481109018660
H            6.46917575519004       -6.37817513451363        1.79107031728067
H            5.10224123845142       -4.32293179511553        1.73153352482908
H            1.35643013731733       -2.52467107940170        2.24688919065114
H            0.07839227466981       -4.22593852731435        3.47789363690574
H            0.06737772972621       -6.57063318982508        2.70483305895172
H            1.36503697257787       -7.20345271511539        0.70050902095430
H            2.58652325541228       -5.49315175056912       -0.57014495474439
H            6.08929500799661        6.61665684627004        0.21582378088656
H            5.62417824586108        5.08179788119330        0.93768065953541
H            5.56307319720747        5.29436561791714       -0.81929342034329
H            4.48202964876637        8.04082010590179       -0.93420447678566
H            2.74657727102943        7.76086120096476       -0.82832504944781
H            3.73826049336341        6.73446683364473       -1.86117652807390
H            3.96041839916301        6.36240041785888        2.41709682683497
H            4.59463645553775        7.82507520323425        1.65732255006393
H            2.86006043782442        7.52750187486662        1.68524158566576
