132
energy: -196.933673872982 gnorm: 0.003860891808 xtb: 6.7.1 (edcfbbe)
C           -1.25853432778646        0.34696171007186       -0.04353884637534
C           -1.17983955621054       -1.04822090466815       -0.22921584093603
C            0.04806010746056       -1.69459000633931       -0.34166255452422
C            1.23648035791159       -0.97035914415684       -0.33104074102100
C            1.22654454686069        0.44561866299008       -0.30431860797420
C           -0.03845036697842        1.04005680505079       -0.14167707117244
N           -0.09182447982685        2.39364698225427       -0.04674371333658
N           -2.37787059051421       -1.73897989540916       -0.21339785794382
N            2.47611347053369       -1.58492764715340       -0.33350443160789
C            0.98847104232272        3.23129018967526       -0.04150706315829
C            0.54934678364540        4.56511406008329        0.09516509014914
C           -0.90099617246967        4.50578629003016        0.13356010444000
C           -1.23337813042211        3.13561164760015        0.08546972272725
C            2.31550651226362        2.82501379044947       -0.13715271786385
C            3.23671333458958        3.86625425222098        0.06197410521171
C            2.86249196115834        5.19640417376325        0.22267329054886
C            1.50720033735378        5.55265788877975        0.20513124828967
C           -1.93374902527268        5.41989314784631        0.19414451876947
C           -3.25937290023504        4.96528215781157        0.19382842496680
C           -3.52681995775947        3.59979324185836        0.20674060862780
C           -2.52128269176767        2.62073961614255        0.20116902013710
C           -4.37465312151515        6.00428812953850        0.20565283963160
C           -4.23906089596893        6.90475461212996       -1.03068840750543
C           -5.77384631722584        5.38151698144498        0.18177159563774
C           -4.25444785084906        6.84990575059807        1.48175030410454
C            2.82128863900496       -2.92090853822717       -0.13616334323300
C            4.18092439541905       -3.07149433255915       -0.21350848700047
C            4.72898930825712       -1.77610138254618       -0.51762667242866
C            3.63191391882489       -0.87406507875989       -0.56422188437071
C           -3.45920902321516       -1.21774565395693        0.45259183115191
C           -4.39345634339906       -2.26640499918215        0.66335325946707
C           -3.84669131875854       -3.43716117367858        0.03676214374787
C           -2.64769215239865       -3.07518530443166       -0.53133007863106
C            5.99769410886226       -1.32093642075520       -0.77433405973710
C            6.17188158499089        0.02504620205540       -1.14896751678754
C            5.05691973444441        0.91494637974725       -1.20014198324632
C            3.75784900291840        0.49049797505168       -0.78812601703906
C            7.45162934589654        0.50562525495554       -1.50515539287913
C            7.62795605560108        1.78300653607044       -1.95249613072507
C            6.51666740546996        2.62639877840836       -2.10356479843018
C            5.26900512475167        2.19938154618151       -1.74159941372431
C           -3.65315540402701        0.09900192265915        0.84423709970203
C           -4.82149361613762        0.32531044372011        1.63218341284200
C           -5.77568053077116       -0.71657948233073        1.85013386298210
C           -5.55863196113902       -2.01230406154050        1.34311256274751
C           -5.04270194694107        1.56141536795853        2.27334585438453
C           -6.16535306235001        1.79136672906938        3.01910264541773
C           -7.13647118079527        0.78986174513532        3.16924070814151
C           -6.93605134932650       -0.43705496717653        2.60597570053132
C           -4.52451645193037       -4.73452769967146        0.07090835341559
C           -1.93401527604215       -3.76994831919501       -1.59577198085517
C           -1.91762296017111       -5.16072958646474       -1.69552949004116
C           -1.34083332679089       -5.78217756600289       -2.78702669660780
C           -0.74686656193409       -5.03597536565834       -3.78963323698941
C           -0.76640499301447       -3.65335260695927       -3.70968304007063
C           -1.36700095484848       -3.02649321978814       -2.63742612209317
C           -3.98462079939968       -5.78665738717409        0.80870019218214
C           -4.65242817920189       -6.99374597728335        0.89262143600667
C           -5.86907917443304       -7.16170508205917        0.25086697414832
C           -6.42060281970882       -6.11440710926816       -0.46829434088237
C           -5.75606958776801       -4.90447478313642       -0.55280058528712
C            4.98907582996615       -4.25590801180072        0.06575751088860
C            4.72135696958740       -5.50273169141008       -0.49224159700127
C            5.52329457879021       -6.59037034666207       -0.19995065504312
C            6.60992192871162       -6.45168282183948        0.64582583414926
C            6.88631536976594       -5.21553833269961        1.20661573947506
C            6.08356549569204       -4.12846257370149        0.92156767154322
C            1.87766225657090       -3.99483833910489        0.21098502217189
C            1.40047724546754       -4.11654971586269        1.51413238594461
C            0.58244673570497       -5.17639619355415        1.85991858633712
C            0.26450777263863       -6.14531040509705        0.92161647009832
C            0.74504256574544       -6.03585318564616       -0.37204529883086
C            1.52818764161733       -4.95539546633439       -0.73435475348398
B            2.49835474485595        1.30837066479176       -0.43594393001027
B           -2.56592877064970        1.07308236002093        0.33209032841939
C            3.89305760293935        6.30378723087505        0.41062960478981
C            5.33378332501875        5.78476875301467        0.43532879885517
C            3.76984521094376        7.30090625701927       -0.75068440342469
C            3.62666958443960        7.01884436587071        1.74327920905208
H            0.07028452908261       -2.76693652091557       -0.42019918737913
H            4.27917557120222        3.60324512298705        0.11223204032418
H            1.20552049562975        6.58422467173006        0.30503517793328
H           -1.71282591751344        6.47594955881492        0.22533985816497
H           -4.54879417241139        3.25965715368482        0.20394070131870
H           -5.04039972591625        7.64073201852533       -1.04765613935324
H           -3.29148948836112        7.43626086483489       -1.03728337462599
H           -4.30053097483492        6.30755214467149       -1.93833219866837
H           -6.52008860891626        6.17376892829916        0.18496491649108
H           -5.94424174818574        4.75723516400058        1.05564354557462
H           -5.92250863882891        4.78501349308592       -0.71567867620586
H           -4.33118427423795        6.21357044800996        2.36132484488165
H           -3.30401031794942        7.37491191910134        1.52414793311709
H           -5.05215216121666        7.58874911714812        1.51935207058584
H            6.85045219414593       -1.98269019916289       -0.73250789710630
H            8.29081622536667       -0.17246110053286       -1.43296526234651
H            8.61136496868699        2.14028124493361       -2.22136045083538
H            6.65509182077461        3.61326464922946       -2.52166507662799
H            4.40948822428358        2.82944679662719       -1.90589298328992
H           -6.29102621282609       -2.78954103762612        1.50859899089709
H           -4.28168639248040        2.32034543020447        2.19202747029413
H           -6.30749129086577        2.74422123196772        3.50854077887118
H           -8.02553048765361        0.98920224258986        3.74928269137144
H           -7.65903728780550       -1.22933018660730        2.74330318973832
H           -2.36004317292490       -5.76062510877836       -0.91862078033556
H           -1.35584806857723       -6.86061631757472       -2.85449709778821
H           -0.28103956466602       -5.52596780289630       -4.63089223277970
H           -0.32452189256204       -3.05850716768091       -4.49614549461899
H           -1.41199083207065       -1.94786286795062       -2.61524064985278
H           -3.04499748601787       -5.64230050855963        1.32585183369631
H           -4.22766182983553       -7.80613933270170        1.46555715103153
H           -6.38887339381891       -8.10597767328158        0.31712560424805
H           -7.37342991907958       -6.24015159302847       -0.96224756391801
H           -6.18045369381803       -4.08316666293412       -1.11234183948584
H            3.89004996351179       -5.61925695431161       -1.16819718464743
H            5.30138227898141       -7.55157318209938       -0.64096927298108
H            7.23884481734406       -7.30161523167227        0.86683951124838
H            7.73074550944095       -5.10113919234090        1.87070787598457
H            6.28807115856560       -3.16992397173103        1.37644696367272
H            1.67275115278631       -3.37417424800352        2.25259534160979
H            0.20193460167513       -5.25395990705992        2.86982852132492
H           -0.35546225957826       -6.98605676596583        1.19686481443162
H            0.51359684500089       -6.79641911941092       -1.10132056307649
H            1.85752288640678       -4.84211410781801       -1.75870198923765
H            6.01578680324045        6.62286096649876        0.56455853648841
H            5.48923293010738        5.09606365984846        1.26255426182669
H            5.59003364996379        5.28430746351893       -0.49507027631428
H            4.51285092706182        8.08916376450143       -0.64911574510435
H            2.78686986120702        7.76310615436577       -0.77742392746623
H            3.93307285418909        6.79323624668145       -1.69925651603939
H            3.69015783730615        6.31023547732394        2.56697819153345
H            4.36524657159743        7.80177864268569        1.90391472291636
H            2.64056732836235        7.47446436104502        1.76288053068401
