132
energy: -196.944525505663 gnorm: 0.003349824528 xtb: 6.7.1 (edcfbbe)
C           -1.25048113976023        0.35242693685686        0.24690971915786
C           -1.17785754087100       -1.04790888700575        0.07447353205735
C            0.04974572963894       -1.69602535044617       -0.02981117783851
C            1.23419194201630       -0.96814934592161       -0.08734337105432
C            1.22131163702917        0.44401465783524       -0.10979440295765
C           -0.03248749531230        1.04261729380864        0.11061495091770
N           -0.07100430493825        2.39745890873508        0.18754024746301
N           -2.38195094055746       -1.72740092340193        0.03990733695595
N            2.47527855811379       -1.57401729774275       -0.17744957661735
C            1.01316293198765        3.22599559967271        0.10856363118782
C            0.59415463100607        4.56470302021909        0.26045164554661
C           -0.85160793723825        4.51757090646304        0.39143027796608
C           -1.19860273964298        3.15016070542752        0.36438459730570
C            2.32441697039733        2.81432905718180       -0.11007232221075
C            3.26519790176221        3.85232540499840       -0.02531216319784
C            2.91322597964701        5.18514944097100        0.16142099679025
C            1.56359352436711        5.54697987641742        0.27146841703790
C           -1.87151573283569        5.44019267043140        0.50887740169589
C           -3.19986480762029        4.99597268310243        0.55883717154894
C           -3.48108921372696        3.63371278015230        0.55165622145733
C           -2.48667813037291        2.64378340871021        0.50815372338583
C           -4.30476496455469        6.04265232721906        0.64395512782186
C           -4.21510677035913        6.97388521379182       -0.57331247450827
C           -5.70877260721409        5.43105739854549        0.66660989192731
C           -4.12138862031797        6.85271560466896        1.93559296220080
C            2.84707525783299       -2.90163723615824        0.01952503282265
C            4.12587357222251       -3.09815830857047       -0.44130454882190
C            4.59688937830729       -1.83329967790731       -0.93574165676867
C            3.54770737800531       -0.89908108274504       -0.71353686928096
C           -3.52665471907305       -1.17051736716859        0.56112899435875
C           -4.54896675247399       -2.16039681229864        0.55842393907143
C           -3.97498435764845       -3.33167275473293       -0.04785387636815
C           -2.66981503277844       -3.03152992698154       -0.35216756489468
C            5.78443743952141       -1.40186959162009       -1.47197686770673
C            5.90126639405186       -0.05524005486451       -1.86839914592999
C            4.82705578918402        0.86292805678268       -1.65971558036006
C            3.64238801185377        0.46084374817989       -0.97296377354634
C            7.08236443588654        0.40174749093979       -2.49395890120645
C            7.19539294722648        1.68678495574077       -2.94130157725140
C            6.10846592480360        2.56446701535121       -2.81641819482599
C            4.95731616808254        2.15886633039941       -2.19930455518994
C           -3.70546674340129        0.13794061754259        0.98699583493956
C           -4.95327496214233        0.39580270493909        1.63035786532044
C           -6.00444576007886       -0.57007383935296        1.60212052288614
C           -5.80001509856323       -1.83817005320115        1.02255864272394
C           -5.16737813344216        1.58074796581289        2.36302786999566
C           -6.37241398759191        1.84968233821649        2.95144699946547
C           -7.43596892550483        0.94233444715292        2.83696570520438
C           -7.24749724790522       -0.24486019717191        2.18925649053376
C           -4.68455194585218       -4.57392369015036       -0.33105471258418
C           -1.75019150671731       -3.90108988937207       -1.08183605471528
C           -1.59368750205360       -5.23178559926672       -0.70120751884178
C           -0.79807816179483       -6.08048659637660       -1.44623627864015
C           -0.13601399976390       -5.61133741719438       -2.56834654748995
C           -0.27985145599805       -4.28744183412152       -2.94999372035070
C           -1.08932538369178       -3.43875396131046       -2.22016164765009
C           -5.48030180175910       -5.16556856675839        0.64788442987905
C           -6.15852955170051       -6.34118656689977        0.38605100296347
C           -6.05656082061151       -6.94371936723527       -0.85627953914811
C           -5.27333092856322       -6.35905776372568       -1.83895138105203
C           -4.59561139266927       -5.18397319737775       -1.58192521240063
C            4.91898905421894       -4.32302927880331       -0.39102386635608
C            5.57686945158358       -4.77397431511421       -1.53250998931461
C            6.33515559485440       -5.92927343438725       -1.49553363849985
C            6.45483215552202       -6.64600798265764       -0.31788698057275
C            5.81221354873818       -6.19952213269797        0.82451941475236
C            5.05007216984939       -5.04781503448853        0.79099779540803
C            2.04513488653450       -3.88930614474875        0.73488302899776
C            1.42847105713996       -3.56785778347141        1.94486361821398
C            0.74181820909082       -4.53198571226568        2.65587256281505
C            0.67591136410505       -5.83316121995740        2.18387918552545
C            1.29743194639398       -6.16243941932762        0.99145155068316
C            1.97125945169873       -5.19899934639518        0.26567271455289
B            2.47102324767299        1.29552700884624       -0.40747895902821
B           -2.55463832466664        1.09343224368431        0.60222260626351
C            3.96067205192953        6.28904860894334        0.24031054424264
C            5.39469929629137        5.76259268656183        0.13087723682284
C            3.73236887884993        7.28075463285923       -0.90937590385440
C            3.82403280408791        7.01269778289907        1.58746241631609
H            0.08331681880217       -2.76957025538864       -0.07556235130127
H            4.30575925718974        3.58383701311341       -0.09262663594918
H            1.27751741387948        6.58153279404642        0.38440664329555
H           -1.64095331799891        6.49409415086914        0.54200087028585
H           -4.50621137149834        3.30537510341405        0.56435900205714
H           -5.00898854323093        7.71723236443140       -0.53662632437696
H           -3.26343135701780        7.49697686273576       -0.60774305366871
H           -4.32173375856454        6.40046609811458       -1.49205133499451
H           -6.44767929589135        6.22819417189711        0.72359961203977
H           -5.84482388788073        4.78553018607653        1.53099126384761
H           -5.90288649072724        4.85863823739279       -0.23747604360041
H           -4.16500634392401        6.19349270094336        2.80041838217760
H           -3.16549707227762        7.36933408090079        1.95031833411236
H           -4.91062424132493        7.59607878892515        2.02823860899050
H            6.61652239006058       -2.07681932035541       -1.60972171889158
H            7.89520185828428       -0.29904592007394       -2.62515910109182
H            8.10526572578854        2.02558710705293       -3.41461774029439
H            6.18497252913851        3.56282375348390       -3.22355220249256
H            4.10872333462645        2.82168937530600       -2.14639898036945
H           -6.61729004734775       -2.54287555761408        0.97405704082503
H           -4.33908650720148        2.25989484767815        2.48734440611136
H           -6.51043905592323        2.75883813578329        3.51941536138530
H           -8.38947696884846        1.17675276904515        3.28720939583866
H           -8.04579858198593       -0.97193819903994        2.13382492966482
H           -2.09839173137767       -5.59422105016105        0.18186912078323
H           -0.69544235465086       -7.11387305967002       -1.15177897468226
H            0.48870925792222       -6.27413695578703       -3.14867760002993
H            0.23199829380227       -3.91650530693626       -3.82587717559093
H           -1.21727932663291       -2.41114586661515       -2.52998139404436
H           -5.54466497417553       -4.70583773104384        1.62364656797196
H           -6.76808969074443       -6.79160434385858        1.15673203548970
H           -6.58589574165434       -7.86301200821768       -1.05858356576601
H           -5.19554662823755       -6.82147377674942       -2.81239440209671
H           -3.99713423937982       -4.72456643212380       -2.35554016553061
H            5.47370701699849       -4.22170411502393       -2.45481865235087
H            6.83472764531256       -6.27371571352711       -2.38960826430715
H            7.04818011305057       -7.54809155339515       -0.28923629852731
H            5.90883402563758       -6.75152114000134        1.74790514587697
H            4.55655909434374       -4.69676353013253        1.68520613639593
H            1.49715182448789       -2.55917911228176        2.32701573278824
H            0.26514787348681       -4.27033621967123        3.58932382742743
H            0.14567447542423       -6.58739748122191        2.74595853491665
H            1.26122141498318       -7.17743702654760        0.62511873781731
H            2.44289797838483       -5.45395717755586       -0.67101707855983
H            6.09086017425100        6.59617346327383        0.20374295398038
H            5.62056823933520        5.06659483997400        0.93554775815335
H            5.56230330610829        5.26809273650665       -0.82314873172432
H            4.47099056370394        8.07866525377682       -0.86843375374996
H            2.74453906567013        7.73055677073966       -0.85866738709372
H            3.82586008475809        6.77268933343406       -1.86703550521046
H            3.95753156194670        6.30847745034786        2.40646353761719
H            4.57982800351897        7.79070958941492        1.67488220065308
H            2.84716195790218        7.47650330563345        1.69437498903324
