132
energy: -196.944258058360 gnorm: 0.005888378773 xtb: 6.7.1 (edcfbbe)
C           -1.24983143243396        0.35182161425014        0.24563646569824
C           -1.18061946528089       -1.04744456819987        0.06571142548524
C            0.04602946579276       -1.69610102715408       -0.04296022351220
C            1.23174441247960       -0.96878377843592       -0.09373617726800
C            1.22226529332455        0.44282906878294       -0.10623986121624
C           -0.03091135950179        1.04199581564627        0.11458106882715
N           -0.06886494234192        2.39620686665259        0.19886685911092
N           -2.38765373867676       -1.72452497111967        0.02959415852976
N            2.47169227436425       -1.57689803216129       -0.18430937559761
C            1.01632051791195        3.22506558809723        0.12309022446136
C            0.59636558579254        4.56412374318069        0.27041283667444
C           -0.85093768899088        4.51687059314920        0.39484980057557
C           -1.19660191567441        3.14904851127990        0.36897043744238
C            2.32812831435667        2.81175326081836       -0.08845705753724
C            3.26900246449835        3.85017215388866       -0.00040754276840
C            2.91626753837525        5.18373130977818        0.17718117470695
C            1.56604072813740        5.54633254107832        0.28086260831568
C           -1.87273188295051        5.43805037028125        0.50677131735010
C           -3.20139128512342        4.99330989153267        0.55575053492149
C           -3.48102846419121        3.63103899744575        0.54837809406091
C           -2.48521241051090        2.64291012563204        0.50862874680306
C           -4.30773376848333        6.03774910006891        0.64401533296335
C           -4.22597949428847        6.97015414900382       -0.57291426295211
C           -5.71116397287046        5.42458616925509        0.67289329866355
C           -4.12036225253056        6.84827600315614        1.93499345279922
C            2.84193284186635       -2.90578188794335        0.00708649038853
C            4.11903975794056       -3.10050288681738       -0.45709380251188
C            4.59295532635698       -1.83705134301255       -0.94639822920402
C            3.54613463763470       -0.90123750590035       -0.71874232352918
C           -3.53159092750739       -1.16730812177631        0.55305744292493
C           -4.55462970019529       -2.15651813434968        0.54824332223516
C           -3.98243811595008       -3.32685470382291       -0.05887547578362
C           -2.67749004280897       -3.02691328609427       -0.36494421004849
C            5.78441251669384       -1.40424108783126       -1.47382045519268
C            5.90461535238805       -0.05624171560544       -1.86123681422618
C            4.83274105716756        0.86415981820031       -1.64731306472302
C            3.64575515254410        0.46101025437325       -0.96328129102000
C            7.08580654268568        0.40289752066168       -2.48750440958415
C            7.19575333583786        1.68559612111332       -2.94037359191279
C            6.11053348056645        2.56514803744125       -2.81063643511983
C            4.96455814795773        2.16171521793777       -2.18259347638065
C           -3.70572894435832        0.13965819370746        0.98518263806360
C           -4.95261968249206        0.39977032739634        1.62882439663312
C           -6.00515811538828       -0.56494256677962        1.59832352071079
C           -5.80368517307490       -1.83256599259088        1.01842589952336
C           -5.16560541026279        1.58581551486606        2.36006966068507
C           -6.37315236039975        1.85982442594319        2.94116832128023
C           -7.43763069871820        0.95407327932855        2.82448367044255
C           -7.24908186567163       -0.23606510616734        2.18242267970490
C           -4.69311098008588       -4.57203318618050       -0.33815200848210
C           -1.75547050356215       -3.89655889967166       -1.09309597527637
C           -1.59808302575842       -5.22489507033221       -0.70650756429436
C           -0.78889885442540       -6.07245447788460       -1.43950022317306
C           -0.11546315814173       -5.60372274660282       -2.55440917014953
C           -0.26702663572030       -4.28318332645384       -2.94522987881528
C           -1.08951076696133       -3.43571061421576       -2.22946284184993
C           -5.48649754505718       -5.15877994954301        0.64450693636061
C           -6.15549841801252       -6.34281271763435        0.39092727442409
C           -6.04183940073899       -6.95509261126907       -0.84537930572372
C           -5.26304148821608       -6.37281534200499       -1.83188648114968
C           -4.59561166817212       -5.18833493926183       -1.58414971466386
C            4.90845565750426       -4.32921216588097       -0.40630625178492
C            5.49914633452903       -4.82467923931862       -1.56721981541865
C            6.25439705977131       -5.98222763381898       -1.52726905302397
C            6.44487810984369       -6.64653768862839       -0.32531660501099
C            5.87212629894393       -6.15130384435429        0.83696283325379
C            5.10397081620491       -5.00338823631126        0.79835870958164
C            2.04500156479700       -3.89595719291167        0.72343592637677
C            1.41418780145145       -3.56005469967912        1.92295426657923
C            0.72784182233131       -4.51850519645607        2.64230784297348
C            0.67967959008235       -5.82742905381947        2.19041304825622
C            1.31355620764066       -6.17198643651049        1.00892681254941
C            1.98495629680646       -5.21283784534665        0.27443197995343
B            2.47533948073004        1.29451562999431       -0.39315448169476
B           -2.55322624937678        1.09298616969314        0.60237809951991
C            3.96447917755907        6.28858436422406        0.24739607635500
C            5.39877599826564        5.76304552635878        0.13493342636996
C            3.73137795790301        7.27402876209334       -0.90689796468446
C            3.83498760814122        7.01979918256158        1.59180182949363
H            0.07933103129470       -2.76930265355945       -0.09519679357458
H            4.31000127279808        3.58132034778221       -0.05824214822024
H            1.27943256369117        6.58146928517623        0.38791856847079
H           -1.64280079308125        6.49222930874553        0.53687767715990
H           -4.50580468037865        3.30131043520529        0.55843304617464
H           -5.01462080179632        7.71825913429474       -0.52491081970716
H           -3.27144556794657        7.48688309147760       -0.61743580794268
H           -4.34772638797716        6.39937105611016       -1.49117846020547
H           -6.44998451670568        6.22142934483268        0.73600956381584
H           -5.84257030644183        4.77665657613599        1.53613908972598
H           -5.91044241109893        4.85435969740501       -0.23149042627820
H           -4.18014342143182        6.19224895773021        2.80108538454108
H           -3.15671984720630        7.34944436962529        1.95443203470542
H           -4.89849236024011        7.60402317986748        2.02025657804749
H            6.61459539217048       -2.08133907798578       -1.61528715231696
H            7.90019897097426       -0.29639170957799       -2.61758865968354
H            8.10295134188119        2.02193079885447       -3.42118404331590
H            6.18322773655942        3.56213667341921       -3.22119095506103
H            4.11850070735609        2.82699773405954       -2.11934147118045
H           -6.62411037950861       -2.53371620733343        0.97202915654706
H           -4.33468066198834        2.26138418888287        2.48638373813951
H           -6.51136889290226        2.77199600701147        3.50412159042973
H           -8.39330764696424        1.19151107505777        3.26894774851843
H           -8.04912573893193       -0.96137175690104        2.12762137085364
H           -2.11242844516314       -5.58396340785865        0.17194633013682
H           -0.68654002974780       -7.10354777377379       -1.13667164634682
H            0.52252062420092       -6.26857457370028       -3.11760200656279
H            0.25182481225299       -3.91509529080420       -3.81849446637172
H           -1.22049337612683       -2.41123300121995       -2.54784022458780
H           -5.56360108981921       -4.69758096646732        1.61854349753789
H           -6.76349865183430       -6.79144830279210        1.16271736556767
H           -6.55937553658469       -7.88269017728082       -1.04246613467822
H           -5.17496868392041       -6.84239298295720       -2.80098220524181
H           -4.00064189126986       -4.72954137341857       -2.35872952932409
H            5.34506216492435       -4.30520339887137       -2.50414633312912
H            6.69719431365444       -6.36612174594868       -2.43749252073907
H            7.04045713125742       -7.54707844123762       -0.29429710974218
H            6.02777377200626       -6.66134338735208        1.77888385871990
H            4.65685562051892       -4.61613123809596        1.70372108467979
H            1.46978151519802       -2.54520699202444        2.29018724924846
H            0.23719087745598       -4.24639138193590        3.56557009438749
H            0.15131302483351       -6.57569794569459        2.76286447314522
H            1.28739818272124       -7.19277414724302        0.65832260735383
H            2.46389656673551       -5.48032949694664       -0.65538345981750
H            6.09279558130599        6.59998178763074        0.18451222925413
H            5.63358997299934        5.08456098826696        0.95172466368782
H            5.55977358124913        5.24978154473865       -0.81002111874688
H            4.45894577624744        8.08154269773503       -0.86279768918083
H            2.73764797272657        7.71034601208294       -0.86520298911198
H            3.83925497203615        6.76414143751670       -1.86179279167076
H            3.99330366246711        6.32345733938925        2.41276481858571
H            4.57952536120101        7.81022560532491        1.66185575221205
H            2.85250889411542        7.46760436758557        1.71036186373290
