132
energy: -196.866927377949 gnorm: 0.051275600267 xtb: 6.7.1 (edcfbbe)
C           -1.31055193987422        0.31217508935293       -0.24305609760429
C           -1.21999240747304       -1.06721173225637       -0.31889408696379
C           -0.02501384009232       -1.75471666506943       -0.26737340682229
C            1.14692591894968       -1.04278329947570       -0.34318570542721
C            1.14303079762856        0.35859412190433       -0.42335207321079
C           -0.09434239568335        0.96292803576054       -0.30601024579061
N           -0.14063814883428        2.29046310014079       -0.19706038400414
N           -2.39629432971457       -1.71994750664088       -0.28474279739590
N            2.37419080462292       -1.60888121430152       -0.24847532316633
C            0.92956701106848        3.10047351479000       -0.10391463489377
C            0.50287218689530        4.41575065714245        0.05263134974488
C           -0.91886231945290        4.37685448053472        0.00351819798974
C           -1.26368496923396        3.03253987804165       -0.11485463647097
C            2.23936328049861        2.69444199912191       -0.14789103549502
C            3.14372052850094        3.71555723949967        0.13685865462568
C            2.76177727729931        5.03619450707300        0.31880661197032
C            1.41961800961240        5.40381293867019        0.24313089168192
C           -1.89471128994988        5.32548525125302        0.04834702530830
C           -3.22036590594597        4.90638984492892       -0.04190904213228
C           -3.52610566026748        3.55549262050654       -0.10818073415303
C           -2.55392335948528        2.56096239295606       -0.10023442524765
C           -4.27867579463532        5.97139327159628       -0.02386237135674
C           -4.03613394273727        6.90885453160263       -1.21753998706313
C           -5.68659092557999        5.38309788138112       -0.13002519664753
C           -4.15781952198064        6.73467860179679        1.30524828369842
C            2.74516399485749       -2.87651556129544        0.06801188371100
C            4.09359007342857       -2.95763713117009        0.17913031873807
C            4.61965409339486       -1.69462319905904       -0.13706219375736
C            3.50902211059191       -0.87341023186256       -0.37908536996205
C           -3.46310413674436       -1.15396573764824        0.31882724316143
C           -4.41374420697424       -2.15623504849378        0.54953993655052
C           -3.88335227081140       -3.32360816056642       -0.03356292613150
C           -2.67940019560525       -3.01927684590143       -0.59964804589547
C            5.89037404629847       -1.27146298769153       -0.34477850840693
C            6.04873497497784        0.02689335478670       -0.81679189939014
C            4.93040386086429        0.86488172577103       -1.02152425908077
C            3.63162071225865        0.44058470064682       -0.71950319030242
C            7.32683591970896        0.48926296216361       -1.12825158174442
C            7.48277862556974        1.73367173008753       -1.65468608010562
C            6.36655318481011        2.53711819661839       -1.92462199923757
C            5.10975105264617        2.10575399980500       -1.63020155625253
C           -3.61908787590169        0.15440870641004        0.68184475344166
C           -4.74393210855591        0.41661575331406        1.47741232952557
C           -5.69555032543942       -0.59658341982096        1.74721465479384
C           -5.53560009798353       -1.89587096353761        1.26871351135586
C           -4.89944734399066        1.67171959801202        2.06734715507229
C           -6.00312924550297        1.93708619189804        2.81965396800870
C           -6.97596630273471        0.95216791774522        3.03651886291902
C           -6.81679424891158       -0.29804650811751        2.52431163219504
C           -4.48907087844583       -4.58059571183003        0.16692378968449
C           -2.06865061720136       -3.67683582115225       -1.70642771430184
C           -2.49105275412667       -4.94186803147072       -2.09450750328866
C           -1.96843900284329       -5.53956035465182       -3.21448126300737
C           -1.03216555482595       -4.88516567411537       -3.99352116328855
C           -0.69312249499036       -3.58316921022116       -3.67515799723629
C           -1.22543468317966       -2.97318126750822       -2.56534436097763
C           -3.66464459029141       -5.60801498677882        0.60279455666553
C           -4.22555594994606       -6.83346791031195        0.84666240393430
C           -5.59382925113052       -7.00267233871116        0.69383983838331
C           -6.40658695359380       -5.94966881738226        0.30931922924681
C           -5.85617766571339       -4.71891486568253        0.04357515455531
C            4.92904186520583       -4.08283544904915        0.38877721388224
C            4.63929914522679       -5.28839370586430       -0.22475776383125
C            5.47667207154736       -6.35360587087847       -0.01039365241541
C            6.60768891427759       -6.19997125094298        0.77459700490134
C            6.90606269652914       -4.97688378753568        1.34978544060124
C            6.06193797122459       -3.90945477528058        1.16473887815625
C            1.95284189054996       -4.04580848260743        0.22564508760435
C            2.23183632995615       -4.82575229041207        1.33457662886260
C            1.61413701484234       -6.04531002076009        1.45075293649748
C            0.73840324964089       -6.46625439309424        0.46326118313966
C            0.51224601619930       -5.69575461375266       -0.66498979074431
C            1.13651970129686       -4.47920932432279       -0.80275311619075
B            2.37623240004817        1.22467086183066       -0.50594284700464
B           -2.58774006074386        1.05628011652262        0.06506165975485
C            3.75477161304170        6.13365439907935        0.57668800058139
C            5.19255876674320        5.61399494370821        0.62318729256757
C            3.63512664862314        7.15681134490656       -0.56515593141421
C            3.41255870246093        6.78097359049515        1.92815695957322
H           -0.06737123148000       -2.81366826169949       -0.14334937114946
H            4.17057310763433        3.42389606363787        0.22085931255612
H            1.05404595521316        6.40505551861824        0.35427987325686
H           -1.58590368643242        6.34836917727524        0.13399612781466
H           -4.53790214345225        3.20814561867331       -0.17087550901234
H           -4.81077258482419        7.66901630549417       -1.25383400832881
H           -3.07159396900812        7.40767687731014       -1.15294312045094
H           -4.05596816130851        6.34402054748494       -2.14876215951477
H           -6.41410362569628        6.18951808415036       -0.11890660453372
H           -5.89940691175319        4.72100415130508        0.70709506381231
H           -5.80914918453606        4.82670253447314       -1.05717027732498
H           -4.26197597716693        6.04692786979967        2.14364275317192
H           -3.19543776093432        7.23230215860025        1.40230581556115
H           -4.93844503287376        7.48661761914513        1.37137542129678
H            6.73148785094307       -1.92369169793286       -0.23277523710044
H            8.15188281586187       -0.17767855962860       -0.95010580237662
H            8.46648138269558        2.08405585025886       -1.89372694308494
H            6.49384961301254        3.49882527775658       -2.38211606662112
H            4.23467156722281        2.67742386347379       -1.88306708986875
H           -6.25151146879087       -2.65631463403854        1.50226569342751
H           -4.11874229959858        2.39843850392508        1.93508583060054
H           -6.11784849580326        2.91106749213977        3.25565600740734
H           -7.84031493435950        1.17239591603805        3.63088607799482
H           -7.52487999509667       -1.08913841021384        2.69791786348201
H           -3.25827561975365       -5.46898277778952       -1.56244470695943
H           -2.31597819305085       -6.52298350269749       -3.47212565531242
H           -0.62005664871315       -5.35999661823822       -4.86229832149961
H           -0.02420019845637       -3.01734070788022       -4.29832570877220
H           -0.99602252236065       -1.93470846720641       -2.41322643501489
H           -2.60755653487878       -5.42390317286907        0.72674633541270
H           -3.58889125524840       -7.64311169924509        1.15042458731563
H           -6.02866203718320       -7.96440999615703        0.88162600644392
H           -7.46792393377593       -6.07480953413361        0.20198028961772
H           -6.45722104699884       -3.88800089305200       -0.28757132283937
H            3.77612409539196       -5.38138807708161       -0.86210226781719
H            5.23516865956035       -7.29694846548407       -0.46378215157624
H            7.25924301599641       -7.03650610545815        0.93606727577018
H            7.78485304331753       -4.84419627346889        1.95411917450209
H            6.25723072377628       -2.95997128557811        1.63657599578280
H            2.94400208674513       -4.48087365371428        2.06597587198202
H            1.83168603380943       -6.65659928130334        2.30619502534763
H            0.24691103851829       -7.41483389718840        0.55970791720608
H           -0.13426897024748       -6.03971420682226       -1.44873625702764
H            1.03813079397477       -3.88107903096195       -1.69384106367585
H            5.86790409568485        6.44449613795989        0.80806895824611
H            5.32177139436220        4.88685993915519        1.42225654347265
H            5.47300901935090        5.15030202875162       -0.32030218535226
H            4.37116276046175        7.94437642800332       -0.43353487907588
H            2.64923895907203        7.61501452660120       -0.60045065377266
H            3.81012973608573        6.67128434123613       -1.52448882634308
H            3.43453656614103        6.03203922572362        2.71879207448825
H            4.13663796396983        7.55606717583008        2.16090329667794
H            2.42155425021147        7.22968509239282        1.92405980648696
