132
energy: -196.944045017097 gnorm: 0.004903285015 xtb: 6.7.1 (edcfbbe)
C           -1.25045479924090        0.35296734144418        0.24367826766009
C           -1.18172332432330       -1.04572309620577        0.05768194511289
C            0.04468301934189       -1.69353035488084       -0.05478482276171
C            1.23123741294836       -0.96700445595346       -0.09838825919290
C            1.22250135075669        0.44452391919793       -0.10549011291910
C           -0.03109278293008        1.04292308146420        0.11557771115449
N           -0.06752792262949        2.39697910363888        0.20374812723830
N           -2.38843599328744       -1.72350505998792        0.02042516102305
N            2.47068671777940       -1.57546542136412       -0.18660149702553
C            1.01797127208212        3.22535814029337        0.13040982889173
C            0.59843284551506        4.56434436520629        0.27921870833677
C           -0.84868603064205        4.51743163636430        0.40325553286567
C           -1.19513054048280        3.14998129126437        0.37522206177153
C            2.33017280425444        2.81257193211518       -0.07985983869950
C            3.27114654189573        3.85072400807047        0.00916490889527
C            2.91828320579996        5.18447148532024        0.18566292116128
C            1.56814065506012        5.54642525075594        0.29031460830729
C           -1.86986095908900        5.43935991100741        0.51407022424308
C           -3.19849399144836        4.99521957298260        0.56146975993071
C           -3.47891801175106        3.63317203441184        0.55325419710093
C           -2.48405491539530        2.64402779668359        0.51291947150856
C           -4.30441181703903        6.04043683145430        0.64665463731279
C           -4.22087767630747        6.96909888375762       -0.57300539206563
C           -5.70788280824216        5.42755300760072        0.67587792781846
C           -4.11806149910993        6.85469812809198        1.93536918074557
C            2.83911181044175       -2.90607622816711        0.00212464633887
C            4.11704295105037       -3.10025487907313       -0.45814459394536
C            4.59436192151391       -1.83566332817658       -0.94090612996175
C            3.54759485265138       -0.89968798649854       -0.71312453755730
C           -3.53172018539108       -1.16754294312802        0.54669504642193
C           -4.55363726165299       -2.15790494045025        0.54358734540241
C           -3.98162641705641       -3.32813786423582       -0.06391760207584
C           -2.67789567509713       -3.02666928148473       -0.37321569783444
C            5.78637628906251       -1.40401815796341       -1.46747789374037
C            5.90745628119989       -0.05553120432090       -1.85422038299453
C            4.83619027720862        0.86545086783467       -1.63884884085932
C            3.64840334184001        0.46284185673185       -0.95588531999176
C            7.08698058009440        0.40241862485433       -2.48437143045925
C            7.19528822499508        1.68406136178070       -2.94062965987353
C            6.11115357106926        2.56423036553061       -2.80818738049063
C            4.96707529125196        2.16259041035484       -2.17522890360336
C           -3.70723658039524        0.13878011357021        0.98077899074066
C           -4.95493336538868        0.39625048718026        1.62441390621833
C           -6.00660613298887       -0.56981905035538        1.59406063227120
C           -5.80311950934121       -1.83713421748919        1.01435206785953
C           -5.17118602348060        1.58202565084835        2.35521486757838
C           -6.38027779389085        1.85387232826252        2.93498919916150
C           -7.44359719222679        0.94629086823342        2.81835206461717
C           -7.25175716715973       -0.24384307064041        2.17743229833341
C           -4.69227276461288       -4.57334758001168       -0.34089377666140
C           -1.75521709055808       -3.89761824725865       -1.09911676141969
C           -1.59433705630917       -5.22385082672567       -0.70699000071371
C           -0.78042546536183       -6.07170281202102       -1.43469370165607
C           -0.10568438326022       -5.60545348423521       -2.54938539883698
C           -0.26174381876718       -4.28735897746196       -2.94659332277996
C           -1.08907102403096       -3.43993596299630       -2.23643203928682
C           -5.48296470873736       -5.15885390470855        0.64625196591863
C           -6.15434112650251       -6.34163373916490        0.39692706013442
C           -6.04707565947446       -6.95507173988468       -0.83979845304112
C           -5.26924119304010       -6.37603913251850       -1.82947878985886
C           -4.59819566247881       -5.19252243078345       -1.58536163681018
C            4.90555617462089       -4.33091572183253       -0.40998294137291
C            5.44124388320648       -4.86157816139940       -1.57986700993330
C            6.19579518653569       -6.01939158660129       -1.53937999530161
C            6.44101632365931       -6.64846697582210       -0.32950377777016
C            5.92254758469333       -6.11781546938380        0.84087760288352
C            5.15370313392379       -4.97025641632679        0.80233612122051
C            2.04163749603997       -3.89545509015053        0.71800596088009
C            1.39782581001825       -3.55357647071538        1.90867494573668
C            0.71007368018169       -4.51016930172432        2.62941058723654
C            0.67481380636130       -5.82297766240636        2.18883877754016
C            1.32200422116667       -6.17400942624889        1.01614990955848
C            1.99515404256387       -5.21745940315155        0.28023503184236
B            2.47698437294487        1.29574069122232       -0.38695518393854
B           -2.55386879697353        1.09364124499707        0.60200301793734
C            3.96563712398709        6.29050300027338        0.25046357462700
C            5.40010780205947        5.76599872189611        0.13623994697815
C            3.72804424248068        7.27048066184919       -0.90740592299953
C            3.83854210224474        7.02708200841108        1.59215131359643
H            0.07830582265106       -2.76618235677596       -0.11417663158413
H            4.31212519315319        3.58164262374452       -0.04775543528385
H            1.28133323731326        6.58144585379670        0.39789379528817
H           -1.63926768889375        6.49324206915332        0.54416183845534
H           -4.50383891913144        3.30441544701055        0.56206984266846
H           -5.00952928281363        7.71744296751546       -0.52872816747504
H           -3.26624911848401        7.48555265735495       -0.61768572979559
H           -4.34114984048270        6.39533241166617       -1.48969186606057
H           -6.44662809220443        6.22437439157461        0.73846046818929
H           -5.83921489614544        4.78027931388238        1.53955845663952
H           -5.90696421905178        4.85669686138830       -0.22815069020269
H           -4.17869719043183        6.20140549288241        2.80336446635695
H           -3.15459213827202        7.35601638267852        1.95436243718869
H           -4.89623063696356        7.61071816871821        2.01780012819815
H            6.61518521565565       -2.08260539474517       -1.61052258891472
H            7.90085783969076       -0.29706426828641       -2.61615246914072
H            8.10033414030828        2.01888248695437       -3.42650596986241
H            6.18273582949185        3.56032748269962       -3.22095565288273
H            4.12156340315866        2.82840187761576       -2.11009736607520
H           -6.62127604894610       -2.54089516333277        0.96760096044893
H           -4.34227753616161        2.25998317246345        2.48332543786026
H           -6.52119235144264        2.76631980696110        3.49679566581010
H           -8.40004305202801        1.18265813344366        3.26210992488167
H           -8.04977386996501       -0.97163937360034        2.12208757327301
H           -2.10912618771732       -5.58207100804461        0.17155572604647
H           -0.67401703466781       -7.10152362697171       -1.12841860925651
H            0.53675588804287       -6.26930642458693       -3.10876706726246
H            0.25716797024044       -3.92060160243142       -3.81995176373520
H           -1.22379434576140       -2.41723584897602       -2.55879231660900
H           -5.55315952333556       -4.69342933927426        1.61944583307675
H           -6.75916737532749       -6.78896422475231        1.17101153604748
H           -6.56847583034359       -7.88138471229968       -1.03324528248138
H           -5.18457496449732       -6.84857055897067       -2.79805668115641
H           -4.00507191000113       -4.73731508491186       -2.36182864053471
H            5.24581844375338       -4.36986963445528       -2.52324230775802
H            6.59431130761968       -6.43224615944831       -2.45533297720921
H            7.03687223092459       -7.54869800225560       -0.29842105304440
H            6.12080041048849       -6.59960140050263        1.78809093793338
H            4.74798898407488       -4.55489267766533        1.71339796693101
H            1.44225441036001       -2.53516705320125        2.26711865632277
H            0.20893488625693       -4.23216834049954        3.54521788925637
H            0.14599278822567       -6.57058717819196        2.76181427999294
H            1.30478596506504       -7.19855964502377        0.67423775968971
H            2.48387460603874       -5.48867043999185       -0.64329384341516
H            6.09319941791305        6.60387824938427        0.17979057050298
H            5.63802051825011        5.09163578103920        0.95541596982275
H            5.55871101450578        5.24858437287975       -0.80675766377312
H            4.45901621980387        8.07435189293058       -0.87476244486289
H            2.73752337658580        7.71169156647834       -0.86055761264496
H            3.82517186817651        6.75523896170433       -1.85963458011413
H            3.99951893652759        6.33458667673258        2.41583446417123
H            4.58210331460382        7.81878269318246        1.65711946744640
H            2.85581573582292        7.47410680229622        1.71112830434181
