132
energy: -196.822621278365 gnorm: 0.106580446998 xtb: 6.7.1 (edcfbbe)
C           -1.29317025328516        0.29599067929091       -0.22676648078143
C           -1.22392186450721       -1.07146853041789       -0.32287399996461
C           -0.02831113613864       -1.74066463572891       -0.28481210979628
C            1.14787915939192       -1.05266983287894       -0.34890899636214
C            1.13236604238469        0.33846863758781       -0.41482796367116
C           -0.09034295686187        0.95168210583635       -0.28966758089186
N           -0.13931747723839        2.26120935921983       -0.18532917747432
N           -2.38047020478089       -1.72042815217107       -0.27037698544067
N            2.35953016193057       -1.60915320229741       -0.24673651028694
C            0.91426059358518        3.06927979579302       -0.10107038967449
C            0.49648109250326        4.37916862818659        0.05257608000310
C           -0.90881151472801        4.34159781088443        0.00488742689197
C           -1.24471287897007        3.00266064275351       -0.10373909568564
C            2.21878290452829        2.67644807841976       -0.14129547658801
C            3.11543791157003        3.69463373228085        0.13795901340254
C            2.73831599978959        5.01699957782030        0.31655195112709
C            1.40068946597214        5.36864657935546        0.23653737315591
C           -1.87281372445257        5.29128650133408        0.04761197118815
C           -3.19522175401356        4.88857112484532       -0.04273818354638
C           -3.49666495424108        3.53680101277181       -0.10821995683492
C           -2.53064856903485        2.54767567171186       -0.09304144253479
C           -4.25740579564640        5.95569363750023       -0.02411063389248
C           -4.02406171284630        6.89989848361542       -1.21856574329365
C           -5.67363486296312        5.37266954873905       -0.12995196124545
C           -4.14582105063789        6.72532934321472        1.30603550996812
C            2.73653918899683       -2.85952631432276        0.06278330478498
C            4.07890579989887       -2.94417371016793        0.17678314567763
C            4.59242694232469       -1.69089432154121       -0.13106298085762
C            3.48260450393672       -0.88225750274391       -0.36716659448726
C           -3.44184117540797       -1.15648243386635        0.31236908248627
C           -4.39605250665211       -2.14451074527483        0.53525782366747
C           -3.86899071640613       -3.30578817029983       -0.02598463900729
C           -2.67279482581934       -2.99891382831456       -0.59041767979935
C            5.85325105698035       -1.26986692259287       -0.33703039262976
C            6.01486729961188        0.01315886465649       -0.80938241494566
C            4.90084211603895        0.84586671492357       -1.01173304987142
C            3.61620287139013        0.42066405417616       -0.70515710198631
C            7.28608589068948        0.46609326520761       -1.11628827242811
C            7.44822154507736        1.70623832496939       -1.63917668405689
C            6.33884709253249        2.50770844409634       -1.90490970422519
C            5.08556765825102        2.07709055249085       -1.61182408765994
C           -3.59927113351711        0.13746258691680        0.68730621420610
C           -4.71705949005721        0.40418094530077        1.46928176988832
C           -5.66722785288841       -0.60187394622314        1.73199384386984
C           -5.50901869717646       -1.88464607084935        1.24830638077198
C           -4.88063936290486        1.64943928908485        2.04920081661357
C           -5.98348574329419        1.91438163065776        2.79566462268032
C           -6.94814052823100        0.93194745365312        3.01272670576656
C           -6.78327153687778       -0.31257850600961        2.50042276152748
C           -4.47316229318530       -4.54422019363254        0.16572595987145
C           -2.07323983370556       -3.66348830666248       -1.67271801698964
C           -2.49334615319075       -4.91721426051295       -2.07379022606575
C           -1.97296380543734       -5.51917874067272       -3.18499235628321
C           -1.03860105165186       -4.87479982369866       -3.96523776308776
C           -0.70017921015173       -3.57929772716474       -3.64245899436956
C           -1.23045171303518       -2.97618167851024       -2.53583165732621
C           -3.65855046734595       -5.57513087171913        0.58892715754105
C           -4.21480130603622       -6.79636876855768        0.83117418658367
C           -5.57777338943344       -6.97056807793829        0.68475329976047
C           -6.38400886097631       -5.91588027300239        0.30753425054204
C           -5.83493453139344       -4.68914236420659        0.05221588312096
C            4.91093190841438       -4.05142890917152        0.37693920329138
C            4.62443455004564       -5.25930149890072       -0.21837200281224
C            5.45617851025711       -6.32164500596812       -0.00710956279309
C            6.58736854223211       -6.17343542973660        0.76967958830454
C            6.88380535112873       -4.95042850530105        1.33443031861166
C            6.04651287224416       -3.88621584577005        1.14162607036043
C            1.97499613522374       -4.02319352729140        0.21405545910411
C            2.25861126487200       -4.81009017186528        1.30801762725334
C            1.63538852419818       -6.01768998342429        1.43459021025174
C            0.75236552025351       -6.43778347869374        0.46032500656560
C            0.52590621127141       -5.66298875172910       -0.65906677396906
C            1.14625023587613       -4.45232651983825       -0.79520673711107
B            2.36451291011894        1.20994716881459       -0.52122975290066
B           -2.57917445109476        1.04090558214222        0.06042867424468
C            3.73491771717187        6.11739737890432        0.57220839133963
C            5.18065965195599        5.60350706057544        0.62021691725523
C            3.62389926438493        7.14756782242165       -0.56871668131832
C            3.40118498990229        6.77130380248603        1.92643938932282
H           -0.07646107258102       -2.79417072918392       -0.14992834482879
H            4.13589772227235        3.40530528740157        0.21306199666692
H            1.02579425056423        6.36261451821711        0.34838113997266
H           -1.55507801166216        6.30821036219446        0.13013002110788
H           -4.50037782979908        3.18688097468704       -0.16672905979472
H           -4.80358681739497        7.66014573556175       -1.24941600539902
H           -3.06350271718892        7.41310720668077       -1.16199214693171
H           -4.04939003792688        6.34345416568806       -2.15801088806957
H           -6.40296061664970        6.18270181821907       -0.11840766095737
H           -5.90193429052600        4.71422793263803        0.70957425533791
H           -5.81140979332995        4.81985309600208       -1.06031266151260
H           -4.25641570428762        6.04485197040076        2.15323389620924
H           -3.18832207933854        7.23614784938886        1.41267333274957
H           -4.93080667488395        7.47820030514775        1.36650861473750
H            6.69265510438157       -1.91724250056345       -0.23835848007721
H            8.11633385526031       -0.18919143828372       -0.94268690535665
H            8.42879101572179        2.05087885407446       -1.87954973759563
H            6.46678992672639        3.46538465573786       -2.35979877416753
H            4.22594795509097        2.65875372975502       -1.87208919605076
H           -6.21867469381031       -2.64120504337231        1.48645095484334
H           -4.11229776590604        2.38321596352922        1.92911755291956
H           -6.09951211803062        2.88394214620344        3.22931320731751
H           -7.80877872994286        1.14676350335117        3.60599976787358
H           -7.49646230505775       -1.09302852906108        2.67724259764415
H           -3.26744618407780       -5.45663732130901       -1.57285672696622
H           -2.32094648910352       -6.49610745173983       -3.44657675553013
H           -0.63944656326506       -5.34385802077364       -4.83833834412701
H           -0.04054087124026       -3.01656776784949       -4.26966241031324
H           -0.99761453816653       -1.93778368070465       -2.41352226695495
H           -2.60146306810308       -5.40933127982142        0.72233134320326
H           -3.58183422908839       -7.60242250123375        1.13480289600562
H           -6.01129840976414       -7.92933860707622        0.87379720705507
H           -7.44008733079580       -6.04306986901653        0.19651208504671
H           -6.45202513478481       -3.87028443509522       -0.27245917883742
H            3.76804890967588       -5.37217472084564       -0.85727362081267
H            5.21676340300135       -7.26113932810761       -0.45848761737056
H            7.23646353384655       -7.00804676797664        0.93080524796703
H            7.75486515677103       -4.82246296508828        1.94295610663135
H            6.25858936636681       -2.94719657255236        1.62255161699357
H            2.96415553403418       -4.47969566673959        2.05031368076953
H            1.84499281015991       -6.62162545072611        2.29083019814429
H            0.26293295383493       -7.38352590057720        0.55746778737688
H           -0.11583972731614       -6.00956094590228       -1.43768756008984
H            1.04268850894563       -3.86390119175369       -1.69007129152533
H            5.85766079935335        6.43754889296042        0.80587347238369
H            5.32452528557519        4.88019681596339        1.42399566775013
H            5.47639526774886        5.14494421234582       -0.32427014426610
H            4.36390803352141        7.93520476934486       -0.43124000744679
H            2.64240534784694        7.62088535785289       -0.61018127710562
H            3.80516554996625        6.67138328276069       -1.53480675235585
H            3.42784513255104        6.02901769802671        2.72708244842210
H            4.13034100955488        7.54786453913029        2.15421638934108
H            2.41293926053094        7.23250668911987        1.93354375391755
