132
energy: -196.935159735714 gnorm: 0.002256641282 xtb: 6.7.1 (edcfbbe)
C           -1.26112738231049        0.33524917831731        0.00352642886454
C           -1.18450548789667       -1.06054911347667       -0.18712302707941
C            0.04186071833980       -1.70680152208836       -0.30826240888550
C            1.22808813237907       -0.97908730111795       -0.32568953328987
C            1.21612618841290        0.43572682541045       -0.31531988434080
C           -0.04423274887693        1.02972225343506       -0.11810261066193
N           -0.09156178837538        2.38265313771059       -0.01440549614428
N           -2.38416104483467       -1.74783978290277       -0.17725998102925
N            2.46878458722172       -1.58823247396503       -0.35347822630655
C            0.98946563481839        3.21855836703800       -0.04456190006692
C            0.55813952844727        4.55202464436534        0.11879322052854
C           -0.89013061186746        4.49426220369753        0.21150368519935
C           -1.22722327933612        3.12506800620306        0.15840571707704
C            2.31078348361549        2.81291448617891       -0.20429707652144
C            3.24098630915494        3.85311390812728       -0.04968894005750
C            2.87541696209348        5.18191530876458        0.13968540219035
C            1.52090896566035        5.53818986884236        0.19026964027475
C           -1.91759903911523        5.40875064811478        0.32581222505425
C           -3.24386157192346        4.95632635861731        0.36160395972024
C           -3.51477588006097        3.59193545988567        0.35123120189265
C           -2.51241625500561        2.61027650529814        0.30054300492303
C           -4.35543162086387        5.99710184497805        0.43234454246900
C           -4.26240656336156        6.91504850766383       -0.79506858288330
C           -5.75596791434317        5.37744353355541        0.45239210101355
C           -4.18678977196298        6.82401140874177        1.71527398448184
C            2.82064634357527       -2.92017475353850       -0.14069037757747
C            4.16968568059754       -3.08054773332054       -0.31651023721173
C            4.70303910447193       -1.79433417516551       -0.67933745386671
C            3.60838254610380       -0.88711604705260       -0.67196645020662
C           -3.47737560535968       -1.22539137257448        0.46853695254707
C           -4.43689918656897       -2.26247459460838        0.62156235932358
C           -3.88744894937540       -3.42607185797701       -0.01624461328736
C           -2.65945469590542       -3.07480469876699       -0.52012358533458
C            5.95829204075506       -1.34041952528600       -0.99717331276127
C            6.11488683265279        0.00385386644279       -1.38852319873076
C            4.99862060387992        0.89411728043394       -1.39794790364470
C            3.72177603552808        0.47436451636636       -0.91692791536764
C            7.37741563171481        0.48430881435563       -1.80158100231347
C            7.53177740926805        1.75765542321964       -2.26952710097201
C            6.41389811704360        2.59772197976950       -2.38235390565350
C            5.18417919263479        2.17359532585079       -1.95969810332291
C           -3.65991018889580        0.08465032056046        0.88731291057564
C           -4.83746469334050        0.30800701814359        1.66223781363519
C           -5.81843818127876       -0.71970341416569        1.82085534621020
C           -5.61818327235583       -2.00083165031357        1.27049737421944
C           -5.04075125240638        1.52195064410143        2.34972679577823
C           -6.17247643873828        1.74970858488625        3.08280432174570
C           -7.16965214736601        0.76699205506570        3.17309059429340
C           -6.98675265199283       -0.44166072705323        2.56514098610875
C           -4.58822095042370       -4.71280444442320       -0.08631722861990
C           -1.88657736188336       -3.79195371759875       -1.52807448224959
C           -1.77580079278651       -5.18106747546088       -1.52691956103373
C           -1.13158391912624       -5.83589242630307       -2.56094719829276
C           -0.57232700364437       -5.12102187359522       -3.60541955624721
C           -0.67940669668849       -3.73899802870360       -3.61961102742239
C           -1.33899371120086       -3.08120156600499       -2.60114302611142
C           -4.17585524480483       -5.77979345991679        0.70719499050264
C           -4.85620251338438       -6.98306334413571        0.67001421876124
C           -5.96129523992089       -7.13223122031638       -0.15206764868890
C           -6.38889514154041       -6.06912786161373       -0.92919157084383
C           -5.71022679073568       -4.86399696804238       -0.89349380056441
C            4.98355900246697       -4.26814042040283       -0.06158505519836
C            4.72810190098349       -5.49699109556999       -0.66163432991140
C            5.52129957741466       -6.59435440527434       -0.38092665093172
C            6.58600914588666       -6.48155993145876        0.49615558823081
C            6.85749566534092       -5.25931848352915        1.08863951178986
C            6.06535393839090       -4.16186520328297        0.81150492034829
C            1.90626524160998       -3.93415729348224        0.40322850036147
C            1.48787832567403       -3.82585794180437        1.72799536456558
C            0.69492143019872       -4.80721551407498        2.29208797939334
C            0.32583928628694       -5.91645480634738        1.54780702029707
C            0.73094445647077       -6.02592662095625        0.22952007164533
C            1.50600087687084       -5.03581936237048       -0.34585681933175
B            2.48134056675383        1.29614224005898       -0.50758131008597
B           -2.56211053195925        1.06015711616917        0.40230877452758
C            3.91491741583104        6.28746937044703        0.28373218167639
C            5.35419561192740        5.76466071376947        0.24960291350183
C            3.74484033756688        7.28412398832052       -0.87209422724432
C            3.70661449764055        7.00513652812828        1.62533965971825
H            0.06751761517391       -2.77978627011938       -0.37755666458934
H            4.28464594341846        3.59010790697691       -0.06047585111448
H            1.22539109138647        6.56951195662363        0.30951047895527
H           -1.69384454624259        6.46369821096734        0.37009282007997
H           -4.53743753935944        3.25444038100453        0.36721792180848
H           -5.06297068717987        7.65179514037054       -0.77439730782007
H           -3.31478151969402        7.44546678683923       -0.82622552330940
H           -4.35531423215136        6.33042678998548       -1.70814746799823
H           -6.49955543452736        6.17078867221855        0.50265751128763
H           -5.89194842795584        4.73511962971326        1.31929683310766
H           -5.94294354550302        4.80009933128603       -0.45030357606324
H           -4.23922075355664        6.17639797897678        2.58831413803806
H           -3.23216299938812        7.34265411495716        1.73392544945442
H           -4.97796374764845        7.56731909501852        1.78904286747167
H            6.81437370435335       -1.99941829341306       -0.98388941275773
H            8.22152376779569       -0.18989668201790       -1.75665872818352
H            8.50257279281404        2.11363176879274       -2.58241380081192
H            6.53124174515141        3.57996903318755       -2.81757958838309
H            4.31815995864354        2.80305893291316       -2.08985585836473
H           -6.37612888773830       -2.76276996184171        1.38470223267728
H           -4.25881911455390        2.26342320869681        2.31756309532230
H           -6.30054580614623        2.68536812224362        3.60863586915873
H           -8.06471975641015        0.96404008865154        3.74468142732887
H           -7.72990698839524       -1.22157114651362        2.65978002356671
H           -2.19460067405704       -5.75103422545764       -0.71439537110584
H           -1.06706456984907       -6.91469724885953       -2.55056734122930
H           -0.06308747328961       -5.63557999527909       -4.40728937954032
H           -0.25762650381257       -3.17093497134945       -4.43611034832301
H           -1.44380600865191       -2.00632641166698       -2.64252666044595
H           -3.32486607411376       -5.65437485846137        1.36381470155367
H           -4.52615228932064       -7.80651453917563        1.28709651530771
H           -6.49099658127104       -8.07317973042506       -0.18212696442220
H           -7.25611991146619       -6.17917872580922       -1.56460458244818
H           -6.04196059130920       -4.03297817490172       -1.49913768129717
H            3.91719923242458       -5.59059889594857       -1.36610454145996
H            5.30919675510681       -7.54247858371822       -0.85389946079147
H            7.20398463580346       -7.34019082773808        0.71424947994426
H            7.68871940421372       -5.16252335576501        1.77218597984229
H            6.27014559946696       -3.21272583892624        1.28567878828406
H            1.78979611456707       -2.96804974640885        2.31113214106213
H            0.37456112394252       -4.71287182542078        3.31999987085595
H           -0.27947472460999       -6.69191551253723        1.99419907898833
H            0.44474100469272       -6.88722974455663       -0.35523204411823
H            1.77856653351692       -5.10312979115951       -1.38912738099028
H            6.04306086588883        6.59868714681916        0.36996076507204
H            5.53571696199706        5.06109716596029        1.05893104784481
H            5.57661905083623        5.27990015157229       -0.69789263595572
H            4.49370820674237        8.07056332542913       -0.80303060011173
H            2.76253712294407        7.74849731299037       -0.85615292256357
H            3.86550078907960        6.77564591981292       -1.82670707583741
H            3.80344130746275        6.29815070977322        2.44711565179771
H            4.45334810091800        7.78652310315199        1.75281489694651
H            2.72360675602072        7.46381933950809        1.68595324061782
