132
energy: -196.944677140106 gnorm: 0.001188488344 xtb: 6.7.1 (edcfbbe)
C           -1.24560789452806        0.34857421788958        0.24863940584434
C           -1.17287650420086       -1.05048446383008        0.06512091241586
C            0.05488450983489       -1.69669280430153       -0.04902032683550
C            1.23964217218611       -0.96819691655895       -0.09875869803801
C            1.22589183642406        0.44387181633595       -0.11108425456954
C           -0.02801394137590        1.04038212493381        0.11418830728630
N           -0.06666413272037        2.39465188153549        0.20061534598521
N           -2.37691451908021       -1.73164044831519        0.03307987920086
N            2.48199436910291       -1.57236069246588       -0.18547784970396
C            1.01654553433722        3.22486840943191        0.11943847541268
C            0.59637156031837        4.56310042605947        0.27113386176957
C           -0.84929994798808        4.51389351460069        0.40356041101763
C           -1.19488983838936        3.14603379214971        0.37784206600304
C            2.32755452493710        2.81521047616360       -0.10336645281472
C            3.26740329895337        3.85463945122470       -0.02430229893883
C            2.91418444742154        5.18716021069794        0.16142379924540
C            1.56436813962486        5.54693807622895        0.27676029748339
C           -1.86994119488008        5.43575653917620        0.51709617764912
C           -3.19802009953814        4.99062062102927        0.56646066665710
C           -3.47801476982760        3.62810407340733        0.56254931840422
C           -2.48279134068092        2.63867074696833        0.52098291232655
C           -4.30266382877314        6.03790024402814        0.64497341059559
C           -4.20953666989327        6.96398990099035       -0.57613520940424
C           -5.70706020000575        5.42730705813821        0.66676504338255
C           -4.12153836763873        6.85392993214858        1.93322693785096
C            2.85573207154993       -2.89863454969189        0.01430708543118
C            4.14364621727821       -3.08901674302254       -0.42368375173570
C            4.61779849129131       -1.82166041853927       -0.90884982265648
C            3.55981170468914       -0.89298952508071       -0.70521256502535
C           -3.51889637848054       -1.17805111582796        0.56493645126514
C           -4.53795072712726       -2.17099739978219        0.56845212048297
C           -3.96681420028958       -3.33963921832141       -0.04363441255442
C           -2.66529719397524       -3.03588508900514       -0.35974380237231
C            5.81261740842942       -1.38138520484201       -1.42200371917784
C            5.92187482868305       -0.03853107852016       -1.83272374580624
C            4.83803133113046        0.87259195630490       -1.64523091724323
C            3.65122129094888        0.46716779171771       -0.96368407500774
C            7.10085363210999        0.41992642317891       -2.46205979857601
C            7.19688621084710        1.69345741656241       -2.94444919508354
C            6.10049622616678        2.56206884968554       -2.83956680652558
C            4.95627997338560        2.15998160887871       -2.20722920262641
C           -3.69834122224369        0.12895283618163        0.99575851078262
C           -4.94482307204013        0.38297453085053        1.64386016277483
C           -5.99240640090976       -0.58733528566029        1.62193805437878
C           -5.78642600635107       -1.85502984790033        1.04357046845524
C           -5.16365359643093        1.56981262341729        2.37222879709221
C           -6.37004323455763        1.83687139586292        2.95897734257644
C           -7.42934222154415        0.92375361800927        2.85178918537360
C           -7.23547140766051       -0.26644397942218        2.21158234030456
C           -4.68639971087717       -4.57777774358456       -0.32437232364203
C           -1.75358975955370       -3.90686608871105       -1.09776573436200
C           -1.61278580933250       -5.24169048586569       -0.72521116846614
C           -0.82717525630182       -6.09577716338384       -1.47500812971639
C           -0.15868349351866       -5.62796259833681       -2.59357114642876
C           -0.28853150393893       -4.30046130897473       -2.96802226232293
C           -1.08864197570335       -3.44624784523876       -2.23455172077524
C           -5.46949027621399       -5.17016224916166        0.66395756697527
C           -6.16510180452359       -6.33639252439479        0.40355425484077
C           -6.09178976563436       -6.92707643653487       -0.84633231783987
C           -5.31915328831182       -6.34248235017092       -1.83710592651890
C           -4.62366204743612       -5.17691359195950       -1.58156032931048
C            4.93593401828180       -4.31370543204022       -0.36944996938416
C            5.64358702814763       -4.73291032284253       -1.49411842508894
C            6.40443027986437       -5.88631709440207       -1.45512895353243
C            6.47374254227194       -6.63525021088562       -0.29252325455344
C            5.77842185793982       -6.22248311207871        0.83258405672561
C            5.01687385833439       -5.07027811587070        0.79776692323227
C            2.04166021933501       -3.88819510139273        0.71377201565253
C            1.42169334290835       -3.56517172363385        1.92193536096021
C            0.72159912517495       -4.52529908459687        2.62521716698530
C            0.64675736179567       -5.82358582125822        2.14696870270552
C            1.26923968954480       -6.15428671168760        0.95556280442730
C            1.95565506150965       -5.19391915746915        0.23701786728896
B            2.47539912706506        1.29766396591533       -0.40336857393488
B           -2.54955037242143        1.08748104425845        0.61098279899289
C            3.96031293298305        6.29352683248599        0.22870637978606
C            5.39450829023084        5.76896592473584        0.11215069587325
C            3.72139252456827        7.27841970136451       -0.92487844557920
C            3.83240012193946        7.02449200918161        1.57303355433405
H            0.08829010633290       -2.76968657576574       -0.10605414270501
H            4.30788261527895        3.58724701637334       -0.09679754762595
H            1.27711368634183        6.58135249626771        0.38802934689307
H           -1.63988640140375        6.48981213802595        0.54649958619728
H           -4.50314684326547        3.29956035978181        0.57497555368255
H           -5.00571047042407        7.70511458529165       -0.54658398257725
H           -3.25934116292496        7.48977076461072       -0.60796743438333
H           -4.30991130238672        6.38634016461043       -1.49283720798792
H           -6.44553444363337        6.22533915628262        0.71670224675550
H           -5.84631440910109        4.78688584021107        1.53441648066439
H           -5.89866284888333        4.84977553994659       -0.23459419874043
H           -4.17164707342902        6.19970778568709        2.80136904003934
H           -3.16361212351636        7.36642920589188        1.94913903117784
H           -4.90792579158584        7.60112337153908        2.01835298832149
H            6.65514831071146       -2.04764450991578       -1.53706646420846
H            7.92359801253410       -0.27271821853900       -2.57342136151964
H            8.10142389005868        2.02956181385994       -3.43009350079299
H            6.16357162458414        3.54971871837766       -3.27384057020495
H            4.10193069583258        2.81635233771075       -2.16344251904814
H           -6.60090488245805       -2.56336450461105        1.00225882096101
H           -4.33833885661539        2.25312778996923        2.49302236730070
H           -6.51222271949287        2.74962593705101        3.52003969620455
H           -8.38377232613720        1.15594492069352        3.30137621154563
H           -8.02956294685893       -0.99865899185460        2.16224478041167
H           -2.12226463061862       -5.60236301326033        0.15560971044835
H           -0.73836968651844       -7.13207713167572       -1.18582587055584
H            0.45931677605219       -6.29584375330252       -3.17512341727113
H            0.22770539680366       -3.93130580238319       -3.84216260813575
H           -1.20532318061978       -2.41629379346086       -2.54083416840134
H           -5.51398459264456       -4.72104398837230        1.64584686019132
H           -6.76544457127178       -6.78737260668465        1.18064052512768
H           -6.63545948150099       -7.83805822414415       -1.04908212481906
H           -5.26252555378184       -6.79648016102953       -2.81592482050396
H           -4.03350202733558       -4.71659651021176       -2.36008788375578
H            5.57776926148367       -4.15688864339704       -2.40608682668816
H            6.94372264918736       -6.20452139204446       -2.33572116660255
H            7.06794198710086       -7.53668795084992       -0.26277394710290
H            5.83371654961037       -6.80052633998088        1.74405256839536
H            4.48353066138540       -4.74561363632930        1.68000124897817
H            1.49814523231315       -2.55849363046661        2.30764638174573
H            0.24192633683484       -4.26312366202827        3.55691468336747
H            0.10788883399481       -6.57471679976677        2.70519714522002
H            1.22421509035449       -7.16719131821562        0.58461148196527
H            2.42853514957587       -5.44996186520454       -0.69897984162543
H            6.08924093388408        6.60475139985417        0.16957009418816
H            5.62862131599953        5.08270562608522        0.92261919739625
H            5.55503997106238        5.26433585239262       -0.83758130934551
H            4.46938150952074        8.06838918186066       -0.90461398974072
H            2.73974734874017        7.73943217477589       -0.85887458119917
H            3.79118721211631        6.76131841131520       -1.87978957253005
H            3.97311221180496        6.32498166099783        2.39462490960286
H            4.58797005919075        7.80366991503428        1.65022387054019
H            2.85595171111123        7.48763387280955        1.68459392006966
